<?xml version="1.0" encoding="UTF-8"?>

<!-- generated on 2024-11-28 19:23:27 by Eclipse SUMO sumo Version 1.21.0
<sumoConfiguration xmlns:xsi="http://www.w3.org/2001/XMLSchema-instance" xsi:noNamespaceSchemaLocation="http://sumo.dlr.de/xsd/sumoConfiguration.xsd">

    <input>
        <net-file value="kamppi.net.xml"/>
        <route-files value="offpeak.rou.xml"/>
        <additional-files value="additional.add.xml"/>
    </input>

    <output>
        <emission-output value="emission_offpeak.xml"/>
        <queue-output value="queue_offpeak.xml"/>
        <summary-output value="summary_offpeak.xml"/>
        <tripinfo-output value="tripinfo_offpeak.xml"/>
    </output>

    <time>
        <begin value="0"/>
        <end value="1800"/>
        <step-length value="1"/>
    </time>

    <processing>
        <max-num-vehicles value="500"/>
    </processing>

    <traci_server>
        <remote-port value="63734"/>
    </traci_server>

</sumoConfiguration>
-->

<emission-export xmlns:xsi="http://www.w3.org/2001/XMLSchema-instance" xsi:noNamespaceSchemaLocation="http://sumo.dlr.de/xsd/emission_file.xsd">
    <timestep time="0.00">
        <vehicle id="0" eclass="HBEFA3/PC_G_EU4" CO2="2624.72" CO="164.78" HC="0.81" NOx="1.20" PMx="0.07" fuel="837.22" electricity="0.00" noise="55.94" route="!0" type="DEFAULT_VEHTYPE" waiting="0.00" lane="30568275#2_0" pos="5.10" speed="0.00" angle="327.01" x="1259.03" y="417.77"/>
    </timestep>
    <timestep time="1.00">
        <vehicle id="0" eclass="HBEFA3/PC_G_EU4" CO2="3831.58" CO="150.00" HC="0.77" NOx="1.71" PMx="0.08" fuel="1222.13" electricity="0.00" noise="67.31" route="!0" type="DEFAULT_VEHTYPE" waiting="0.00" lane="30568275#2_0" pos="7.48" speed="2.38" angle="327.01" x="1257.74" y="419.76"/>
    </timestep>
    <timestep time="2.00">
        <vehicle id="0" eclass="HBEFA3/PC_G_EU4" CO2="4315.78" CO="131.80" HC="0.70" NOx="1.89" PMx="0.09" fuel="1376.56" electricity="0.00" noise="65.97" route="!0" type="DEFAULT_VEHTYPE" waiting="0.00" lane="30568275#2_0" pos="11.74" speed="4.27" angle="327.01" x="1255.42" y="423.34"/>
        <vehicle id="1" eclass="HBEFA3/PC_G_EU4" CO2="2624.72" CO="164.78" HC="0.81" NOx="1.20" PMx="0.07" fuel="837.22" electricity="0.00" noise="55.94" route="!1" type="DEFAULT_VEHTYPE" waiting="0.00" lane="-76333547_0" pos="5.10" speed="0.00" angle="326.94" x="1524.12" y="592.31"/>
    </timestep>
    <timestep time="3.00">
        <vehicle id="0" eclass="HBEFA3/PC_G_EU4" CO2="5541.33" CO="129.58" HC="0.72" NOx="2.41" PMx="0.11" fuel="1767.44" electricity="0.00" noise="67.68" route="!0" type="DEFAULT_VEHTYPE" waiting="0.00" lane="30568275#2_0" pos="18.08" speed="6.34" angle="327.01" x="1251.97" y="428.65"/>
        <vehicle id="1" eclass="HBEFA3/PC_G_EU4" CO2="3467.50" CO="147.97" HC="0.76" NOx="1.55" PMx="0.08" fuel="1106.01" electricity="0.00" noise="65.65" route="!1" type="DEFAULT_VEHTYPE" waiting="0.00" lane="-76333547_0" pos="7.13" speed="2.03" angle="326.94" x="1523.01" y="594.01"/>
    </timestep>
    <timestep time="4.00">
        <vehicle id="0" eclass="HBEFA3/PC_G_EU4" CO2="4909.44" CO="100.08" HC="0.57" NOx="2.07" PMx="0.09" fuel="1565.89" electricity="0.00" noise="65.50" route="!0" type="DEFAULT_VEHTYPE" waiting="0.00" lane="30568275#2_0" pos="25.81" speed="7.74" angle="327.01" x="1247.76" y="435.14"/>
        <vehicle id="1" eclass="HBEFA3/PC_G_EU4" CO2="4262.08" CO="134.70" HC="0.71" NOx="1.87" PMx="0.09" fuel="1359.43" electricity="0.00" noise="66.13" route="!1" type="DEFAULT_VEHTYPE" waiting="0.00" lane="-76333547_0" pos="11.11" speed="3.98" angle="326.94" x="1520.84" y="597.35"/>
        <vehicle id="2" eclass="HBEFA3/PC_G_EU4" CO2="2624.72" CO="164.78" HC="0.81" NOx="1.20" PMx="0.07" fuel="837.22" electricity="0.00" noise="55.94" route="!2" type="DEFAULT_VEHTYPE" waiting="0.00" lane="333061565_0" pos="5.10" speed="0.00" angle="57.18" x="1140.83" y="319.50"/>
    </timestep>
    <timestep time="5.00">
        <vehicle id="0" eclass="HBEFA3/PC_G_EU4" CO2="2264.55" CO="44.67" HC="0.25" NOx="0.82" PMx="0.02" fuel="722.31" electricity="0.00" noise="60.50" route="!0" type="DEFAULT_VEHTYPE" waiting="0.00" lane="30568275#2_0" pos="33.64" speed="7.82" angle="327.01" x="1243.50" y="441.70"/>
        <vehicle id="1" eclass="HBEFA3/PC_G_EU4" CO2="6476.12" CO="146.31" HC="0.82" NOx="2.84" PMx="0.14" fuel="2065.58" electricity="0.00" noise="69.87" route="!1" type="DEFAULT_VEHTYPE" waiting="0.00" lane="-76333545_0" pos="4.66" speed="6.54" angle="326.11" x="1517.21" y="602.80"/>
        <vehicle id="2" eclass="HBEFA3/PC_G_EU4" CO2="3969.80" CO="151.01" HC="0.78" NOx="1.77" PMx="0.09" fuel="1266.22" electricity="0.00" noise="67.87" route="!2" type="DEFAULT_VEHTYPE" waiting="0.00" lane="333061565_0" pos="7.59" speed="2.49" angle="57.18" x="1142.92" y="320.86"/>
    </timestep>
    <timestep time="6.00">
        <vehicle id="0" eclass="HBEFA3/PC_G_EU4" CO2="2455.76" CO="46.66" HC="0.27" NOx="0.91" PMx="0.03" fuel="783.30" electricity="0.00" noise="60.94" route="!0" type="DEFAULT_VEHTYPE" waiting="0.00" lane="30568275#2_0" pos="41.63" speed="8.00" angle="327.01" x="1239.14" y="448.41"/>
        <vehicle id="1" eclass="HBEFA3/PC_G_EU4" CO2="4087.97" CO="85.20" HC="0.48" NOx="1.69" PMx="0.07" fuel="1303.89" electricity="0.00" noise="63.84" route="!1" type="DEFAULT_VEHTYPE" waiting="0.00" lane="-234000028_0" pos="0.40" speed="7.56" angle="326.12" x="1512.99" y="609.08"/>
        <vehicle id="2" eclass="HBEFA3/PC_G_EU4" CO2="4324.03" CO="130.70" HC="0.70" NOx="1.89" PMx="0.09" fuel="1379.19" electricity="0.00" noise="65.89" route="!2" type="DEFAULT_VEHTYPE" waiting="0.00" lane="333061565_0" pos="11.95" speed="4.36" angle="57.18" x="1146.58" y="323.22"/>
        <vehicle id="3" eclass="HBEFA3/PC_G_EU4" CO2="2624.72" CO="164.78" HC="0.81" NOx="1.20" PMx="0.07" fuel="837.22" electricity="0.00" noise="55.94" route="!3" type="DEFAULT_VEHTYPE" waiting="0.00" lane="62212960_0" pos="5.10" speed="0.00" angle="146.58" x="1468.75" y="670.28"/>
    </timestep>
    <timestep time="7.00">
        <vehicle id="0" eclass="HBEFA3/PC_G_EU4" CO2="0.00" CO="0.00" HC="0.00" NOx="0.00" PMx="0.00" fuel="0.00" electricity="0.00" noise="58.94" route="!0" type="DEFAULT_VEHTYPE" waiting="0.00" lane="30568275#2_0" pos="49.28" speed="7.65" angle="327.01" x="1234.98" y="454.82"/>
        <vehicle id="1" eclass="HBEFA3/PC_G_EU4" CO2="0.00" CO="0.00" HC="0.00" NOx="0.00" PMx="0.00" fuel="0.00" electricity="0.00" noise="57.55" route="!1" type="DEFAULT_VEHTYPE" waiting="0.00" lane="-234000028_0" pos="7.35" speed="6.94" angle="326.57" x="1509.16" y="614.87"/>
        <vehicle id="2" eclass="HBEFA3/PC_G_EU4" CO2="6690.76" CO="146.36" HC="0.83" NOx="2.94" PMx="0.14" fuel="2134.04" electricity="0.00" noise="69.99" route="!2" type="DEFAULT_VEHTYPE" waiting="0.00" lane="333061571_0" pos="3.89" speed="6.90" angle="56.63" x="1152.36" y="327.00"/>
        <vehicle id="3" eclass="HBEFA3/PC_G_EU4" CO2="3089.80" CO="147.47" HC="0.74" NOx="1.38" PMx="0.07" fuel="985.55" electricity="0.00" noise="63.49" route="!3" type="DEFAULT_VEHTYPE" waiting="0.00" lane="62212960_0" pos="6.68" speed="1.58" angle="146.58" x="1469.62" y="668.96"/>
    </timestep>
    <timestep time="8.00">
        <vehicle id="0" eclass="HBEFA3/PC_G_EU4" CO2="2682.00" CO="51.99" HC="0.30" NOx="1.02" PMx="0.03" fuel="855.46" electricity="0.00" noise="61.29" route="!0" type="DEFAULT_VEHTYPE" waiting="0.00" lane="30568275#2_0" pos="57.22" speed="7.94" angle="327.01" x="1230.66" y="461.48"/>
        <vehicle id="1" eclass="HBEFA3/PC_G_EU4" CO2="0.00" CO="0.00" HC="0.00" NOx="0.00" PMx="0.00" fuel="0.00" electricity="0.00" noise="58.66" route="!1" type="DEFAULT_VEHTYPE" waiting="0.00" lane="-234000028_0" pos="14.07" speed="6.72" angle="326.57" x="1505.46" y="620.48"/>
        <vehicle id="2" eclass="HBEFA3/PC_G_EU4" CO2="2570.51" CO="58.55" HC="0.32" NOx="0.99" PMx="0.03" fuel="819.90" electricity="0.00" noise="60.67" route="!2" type="DEFAULT_VEHTYPE" waiting="0.00" lane="333061571_0" pos="11.05" speed="7.16" angle="56.42" x="1158.32" y="330.96"/>
        <vehicle id="3" eclass="HBEFA3/PC_G_EU4" CO2="4684.96" CO="143.81" HC="0.77" NOx="2.07" PMx="0.10" fuel="1494.31" electricity="0.00" noise="67.96" route="!3" type="DEFAULT_VEHTYPE" waiting="0.00" lane="62212960_0" pos="10.64" speed="3.96" angle="146.58" x="1471.80" y="665.66"/>
        <vehicle id="4" eclass="HBEFA3/PC_G_EU4" CO2="2624.72" CO="164.78" HC="0.81" NOx="1.20" PMx="0.07" fuel="837.22" electricity="0.00" noise="55.94" route="!4" type="DEFAULT_VEHTYPE" waiting="0.00" lane="128171761_0" pos="5.10" speed="0.00" angle="326.55" x="1276.34" y="682.03"/>
    </timestep>
    <timestep time="9.00">
        <vehicle id="0" eclass="HBEFA3/PC_G_EU4" CO2="0.00" CO="0.00" HC="0.00" NOx="0.00" PMx="0.00" fuel="0.00" electricity="0.00" noise="59.20" route="!0" type="DEFAULT_VEHTYPE" waiting="0.00" lane="30568275#2_0" pos="64.88" speed="7.66" angle="327.01" x="1226.48" y="467.91"/>
        <vehicle id="1" eclass="HBEFA3/PC_G_EU4" CO2="4299.65" CO="86.74" HC="0.49" NOx="1.78" PMx="0.08" fuel="1371.40" electricity="0.00" noise="64.27" route="!1" type="DEFAULT_VEHTYPE" waiting="0.00" lane="-234000028_0" pos="21.87" speed="7.81" angle="326.57" x="1501.16" y="626.99"/>
        <vehicle id="2" eclass="HBEFA3/PC_G_EU4" CO2="3563.00" CO="70.80" HC="0.40" NOx="1.43" PMx="0.06" fuel="1136.45" electricity="0.00" noise="62.86" route="!2" type="DEFAULT_VEHTYPE" waiting="0.00" lane=":7631663005_2_0" pos="1.02" speed="7.88" angle="57.11" x="1164.92" y="335.25"/>
        <vehicle id="3" eclass="HBEFA3/PC_G_EU4" CO2="4485.23" CO="117.62" HC="0.64" NOx="1.93" PMx="0.09" fuel="1430.60" electricity="0.00" noise="65.35" route="!3" type="DEFAULT_VEHTYPE" waiting="0.00" lane="62212960_0" pos="16.20" speed="5.57" angle="146.58" x="1474.87" y="661.01"/>
        <vehicle id="4" eclass="HBEFA3/PC_G_EU4" CO2="3458.50" CO="147.94" HC="0.75" NOx="1.54" PMx="0.08" fuel="1103.14" electricity="0.00" noise="65.60" route="!4" type="DEFAULT_VEHTYPE" waiting="0.00" lane="128171761_0" pos="7.12" speed="2.02" angle="326.55" x="1275.23" y="683.72"/>
    </timestep>
    <timestep time="10.00">
        <vehicle id="0" eclass="HBEFA3/PC_G_EU4" CO2="3202.09" CO="59.97" HC="0.35" NOx="1.26" PMx="0.05" fuel="1021.34" electricity="0.00" noise="62.30" route="!0" type="DEFAULT_VEHTYPE" waiting="0.00" lane="30568275#2_0" pos="73.07" speed="8.19" angle="327.01" x="1222.03" y="474.78"/>
        <vehicle id="1" eclass="HBEFA3/PC_G_EU4" CO2="1707.62" CO="35.55" HC="0.20" NOx="0.57" PMx="0.01" fuel="544.68" electricity="0.00" noise="59.41" route="!1" type="DEFAULT_VEHTYPE" waiting="0.00" lane="-234000028_0" pos="29.49" speed="7.61" angle="326.57" x="1496.97" y="633.34"/>
        <vehicle id="2" eclass="HBEFA3/PC_G_EU4" CO2="0.00" CO="0.00" HC="0.00" NOx="0.00" PMx="0.00" fuel="0.00" electricity="0.00" noise="58.19" route="!2" type="DEFAULT_VEHTYPE" waiting="0.00" lane=":3401767825_1_0" pos="1.05" speed="7.36" angle="57.00" x="1169.33" y="338.11"/>
        <vehicle id="3" eclass="HBEFA3/PC_G_EU4" CO2="6673.62" CO="135.49" HC="0.78" NOx="2.90" PMx="0.14" fuel="2128.57" electricity="0.00" noise="69.11" route="!3" type="DEFAULT_VEHTYPE" waiting="0.00" lane="62212960_0" pos="24.02" speed="7.82" angle="146.58" x="1479.17" y="654.49"/>
        <vehicle id="4" eclass="HBEFA3/PC_G_EU4" CO2="4082.31" CO="132.88" HC="0.70" NOx="1.79" PMx="0.08" fuel="1302.10" electricity="0.00" noise="65.54" route="!4" type="DEFAULT_VEHTYPE" waiting="0.00" lane="128171761_0" pos="10.97" speed="3.85" angle="326.55" x="1273.10" y="686.93"/>
        <vehicle id="5" eclass="HBEFA3/PC_G_EU4" CO2="2624.72" CO="164.78" HC="0.81" NOx="1.20" PMx="0.07" fuel="837.22" electricity="0.00" noise="55.94" route="!5" type="DEFAULT_VEHTYPE" waiting="0.00" lane="-42919375_0" pos="5.10" speed="0.00" angle="236.61" x="1323.92" y="443.09"/>
    </timestep>
    <timestep time="11.00">
        <vehicle id="0" eclass="HBEFA3/PC_G_EU4" CO2="2770.06" CO="47.78" HC="0.28" NOx="1.04" PMx="0.03" fuel="883.54" electricity="0.00" noise="61.73" route="!0" type="DEFAULT_VEHTYPE" waiting="0.00" lane="30568275#2_0" pos="81.56" speed="8.49" angle="327.01" x="1217.40" y="481.90"/>
        <vehicle id="1" eclass="HBEFA3/PC_G_EU4" CO2="1883.80" CO="40.39" HC="0.22" NOx="0.65" PMx="0.01" fuel="600.87" electricity="0.00" noise="59.62" route="!1" type="DEFAULT_VEHTYPE" waiting="0.00" lane="-234000028_0" pos="36.99" speed="7.51" angle="326.57" x="1492.84" y="639.60"/>
        <vehicle id="2" eclass="HBEFA3/PC_G_EU4" CO2="1788.02" CO="42.01" HC="0.23" NOx="0.62" PMx="0.01" fuel="570.33" electricity="0.00" noise="59.20" route="!2" type="DEFAULT_VEHTYPE" waiting="0.00" lane="333061564_0" pos="6.27" speed="7.19" angle="56.77" x="1173.81" y="341.05"/>
        <vehicle id="3" eclass="HBEFA3/PC_G_EU4" CO2="3919.19" CO="70.00" HC="0.41" NOx="1.58" PMx="0.06" fuel="1250.05" electricity="0.00" noise="63.66" route="!3" type="DEFAULT_VEHTYPE" waiting="0.00" lane="234000028_0" pos="5.50" speed="8.63" angle="146.57" x="1483.87" y="647.37"/>
        <vehicle id="4" eclass="HBEFA3/PC_G_EU4" CO2="2311.45" CO="95.36" HC="0.49" NOx="0.95" PMx="0.04" fuel="737.29" electricity="0.00" noise="58.02" route="!4" type="DEFAULT_VEHTYPE" waiting="0.00" lane="1122952688_0" pos="0.20" speed="3.93" angle="326.73" x="1270.95" y="690.22"/>
        <vehicle id="5" eclass="HBEFA3/PC_G_EU4" CO2="4045.21" CO="151.60" HC="0.79" NOx="1.80" PMx="0.09" fuel="1290.27" electricity="0.00" noise="68.16" route="!5" type="DEFAULT_VEHTYPE" waiting="0.00" lane="-42919375_0" pos="7.65" speed="2.55" angle="236.61" x="1321.79" y="441.69"/>
    </timestep>
    <timestep time="12.00">
        <vehicle id="0" eclass="HBEFA3/PC_G_EU4" CO2="0.00" CO="0.00" HC="0.00" NOx="0.00" PMx="0.00" fuel="0.00" electricity="0.00" noise="59.16" route="!0" type="DEFAULT_VEHTYPE" waiting="0.00" lane="30568275#2_0" pos="89.66" speed="8.10" angle="327.01" x="1212.99" y="488.69"/>
        <vehicle id="1" eclass="HBEFA3/PC_G_EU4" CO2="2347.96" CO="48.49" HC="0.27" NOx="0.87" PMx="0.03" fuel="748.92" electricity="0.00" noise="60.53" route="!1" type="DEFAULT_VEHTYPE" waiting="0.00" lane="-234000028_0" pos="44.63" speed="7.63" angle="326.57" x="1488.63" y="645.97"/>
        <vehicle id="2" eclass="HBEFA3/PC_G_EU4" CO2="4566.24" CO="86.45" HC="0.50" NOx="1.90" PMx="0.08" fuel="1456.43" electricity="0.00" noise="64.77" route="!2" type="DEFAULT_VEHTYPE" waiting="0.00" lane="333061564_0" pos="14.61" speed="8.33" angle="56.77" x="1180.78" y="345.61"/>
        <vehicle id="3" eclass="HBEFA3/PC_G_EU4" CO2="2340.34" CO="36.35" HC="0.22" NOx="0.84" PMx="0.02" fuel="746.48" electricity="0.00" noise="61.22" route="!3" type="DEFAULT_VEHTYPE" waiting="0.00" lane="234000028_0" pos="14.24" speed="8.74" angle="146.57" x="1488.69" y="640.07"/>
        <vehicle id="4" eclass="HBEFA3/PC_G_EU4" CO2="0.00" CO="0.00" HC="0.00" NOx="0.00" PMx="0.00" fuel="0.00" electricity="0.00" noise="56.92" route="!4" type="DEFAULT_VEHTYPE" waiting="0.00" lane=":1377211668_7_0" pos="3.76" speed="3.76" angle="274.96" x="1268.26" y="689.46"/>
        <vehicle id="5" eclass="HBEFA3/PC_G_EU4" CO2="5512.42" CO="145.22" HC="0.79" NOx="2.43" PMx="0.12" fuel="1758.22" electricity="0.00" noise="69.09" route="!5" type="DEFAULT_VEHTYPE" waiting="0.00" lane="-42919375_0" pos="12.73" speed="5.08" angle="236.61" x="1317.55" y="438.89"/>
        <vehicle id="6" eclass="HBEFA3/PC_G_EU4" CO2="2624.72" CO="164.78" HC="0.81" NOx="1.20" PMx="0.07" fuel="837.22" electricity="0.00" noise="55.94" route="!6" type="DEFAULT_VEHTYPE" waiting="0.00" lane="-114554802#6_0" pos="5.10" speed="0.00" angle="236.58" x="1040.30" y="548.06"/>
    </timestep>
    <timestep time="13.00">
        <vehicle id="0" eclass="HBEFA3/PC_G_EU4" CO2="3405.54" CO="58.90" HC="0.35" NOx="1.34" PMx="0.05" fuel="1086.23" electricity="0.00" noise="62.83" route="!0" type="DEFAULT_VEHTYPE" waiting="0.00" lane="30568275#2_0" pos="98.34" speed="8.68" angle="327.01" x="1208.27" y="495.97"/>
        <vehicle id="1" eclass="HBEFA3/PC_G_EU4" CO2="0.00" CO="0.00" HC="0.00" NOx="0.00" PMx="0.00" fuel="0.00" electricity="0.00" noise="58.55" route="!1" type="DEFAULT_VEHTYPE" waiting="0.00" lane="-234000028_0" pos="51.88" speed="7.26" angle="326.57" x="1484.64" y="652.03"/>
        <vehicle id="2" eclass="HBEFA3/PC_G_EU4" CO2="0.00" CO="0.00" HC="0.00" NOx="0.00" PMx="0.00" fuel="0.00" electricity="0.00" noise="57.40" route="!2" type="DEFAULT_VEHTYPE" waiting="0.00" lane="333061564_0" pos="22.11" speed="7.50" angle="56.77" x="1187.05" y="349.73"/>
        <vehicle id="3" eclass="HBEFA3/PC_G_EU4" CO2="2419.25" CO="36.51" HC="0.22" NOx="0.87" PMx="0.02" fuel="771.65" electricity="0.00" noise="61.42" route="!3" type="DEFAULT_VEHTYPE" waiting="0.00" lane="234000028_0" pos="23.12" speed="8.88" angle="146.57" x="1493.58" y="632.66"/>
        <vehicle id="4" eclass="HBEFA3/PC_G_EU4" CO2="0.00" CO="0.00" HC="0.00" NOx="0.00" PMx="0.00" fuel="0.00" electricity="0.00" noise="51.97" route="!4" type="DEFAULT_VEHTYPE" waiting="0.00" lane=":298372997_1_0" pos="1.45" speed="2.56" angle="189.98" x="1269.12" y="687.16"/>
        <vehicle id="5" eclass="HBEFA3/PC_G_EU4" CO2="4150.86" CO="101.24" HC="0.56" NOx="1.75" PMx="0.08" fuel="1323.95" electricity="0.00" noise="64.10" route="!5" type="DEFAULT_VEHTYPE" waiting="0.00" lane="-42919375_0" pos="19.05" speed="6.31" angle="236.61" x="1312.28" y="435.42"/>
        <vehicle id="6" eclass="HBEFA3/PC_G_EU4" CO2="3800.24" CO="149.78" HC="0.77" NOx="1.69" PMx="0.08" fuel="1212.14" electricity="0.00" noise="67.17" route="!6" type="DEFAULT_VEHTYPE" waiting="0.00" lane="-114554802#6_0" pos="7.45" speed="2.35" angle="236.58" x="1038.34" y="546.77"/>
    </timestep>
    <timestep time="14.00">
        <vehicle id="0" eclass="HBEFA3/PC_G_EU4" CO2="0.00" CO="0.00" HC="0.00" NOx="0.00" PMx="0.00" fuel="0.00" electricity="0.00" noise="59.69" route="!0" type="DEFAULT_VEHTYPE" waiting="0.00" lane="316590746#0_0" pos="0.49" speed="8.39" angle="326.97" x="1203.69" y="503.01"/>
        <vehicle id="1" eclass="HBEFA3/PC_G_EU4" CO2="1948.70" CO="45.51" HC="0.25" NOx="0.69" PMx="0.02" fuel="621.58" electricity="0.00" noise="59.48" route="!1" type="DEFAULT_VEHTYPE" waiting="0.00" lane="-62212960_0" pos="5.05" speed="7.18" angle="326.56" x="1480.74" y="657.94"/>
        <vehicle id="2" eclass="HBEFA3/PC_G_EU4" CO2="2158.32" CO="45.71" HC="0.25" NOx="0.78" PMx="0.02" fuel="688.43" electricity="0.00" noise="60.13" route="!2" type="DEFAULT_VEHTYPE" waiting="0.00" lane="333061566_0" pos="1.44" speed="7.54" angle="56.68" x="1193.35" y="353.86"/>
        <vehicle id="3" eclass="HBEFA3/PC_G_EU4" CO2="0.00" CO="0.00" HC="0.00" NOx="0.00" PMx="0.00" fuel="0.00" electricity="0.00" noise="58.23" route="!3" type="DEFAULT_VEHTYPE" waiting="0.00" lane="234000028_0" pos="31.27" speed="8.15" angle="146.57" x="1498.07" y="625.86"/>
        <vehicle id="4" eclass="HBEFA3/PC_G_EU4" CO2="4645.11" CO="133.83" HC="0.72" NOx="2.03" PMx="0.10" fuel="1481.60" electricity="0.00" noise="66.77" route="!4" type="DEFAULT_VEHTYPE" waiting="0.00" lane="-128171761_0" pos="3.22" speed="4.61" angle="146.62" x="1271.65" y="683.32"/>
        <vehicle id="5" eclass="HBEFA3/PC_G_EU4" CO2="2433.27" CO="63.55" HC="0.34" NOx="0.94" PMx="0.03" fuel="776.13" electricity="0.00" noise="60.01" route="!5" type="DEFAULT_VEHTYPE" waiting="0.00" lane=":7884134654_1_0" pos="1.57" speed="6.50" angle="237.29" x="1306.82" y="431.89"/>
        <vehicle id="6" eclass="HBEFA3/PC_G_EU4" CO2="3916.93" CO="127.74" HC="0.67" NOx="1.71" PMx="0.08" fuel="1249.35" electricity="0.00" noise="64.69" route="!6" type="DEFAULT_VEHTYPE" waiting="0.00" lane=":7702074848_1_0" pos="2.05" speed="3.97" angle="236.58" x="1035.03" y="544.58"/>
        <vehicle id="7" eclass="HBEFA3/PC_G_EU4" CO2="2624.72" CO="164.78" HC="0.81" NOx="1.20" PMx="0.07" fuel="837.22" electricity="0.00" noise="55.94" route="!7" type="DEFAULT_VEHTYPE" waiting="0.00" lane="30568275#2_0" pos="5.10" speed="0.00" angle="327.01" x="1259.03" y="417.77"/>
    </timestep>
    <timestep time="15.00">
        <vehicle id="0" eclass="HBEFA3/PC_G_EU4" CO2="0.00" CO="0.00" HC="0.00" NOx="0.00" PMx="0.00" fuel="0.00" electricity="0.00" noise="59.07" route="!0" type="DEFAULT_VEHTYPE" waiting="0.00" lane="316590746#1_0" pos="1.00" speed="7.99" angle="327.09" x="1199.35" y="509.72"/>
        <vehicle id="1" eclass="HBEFA3/PC_G_EU4" CO2="0.00" CO="0.00" HC="0.00" NOx="0.00" PMx="0.00" fuel="0.00" electricity="0.00" noise="57.11" route="!1" type="DEFAULT_VEHTYPE" waiting="0.00" lane="-62212960_0" pos="11.59" speed="6.53" angle="326.56" x="1477.13" y="663.39"/>
        <vehicle id="2" eclass="HBEFA3/PC_G_EU4" CO2="2919.26" CO="56.88" HC="0.32" NOx="1.13" PMx="0.04" fuel="931.13" electricity="0.00" noise="61.70" route="!2" type="DEFAULT_VEHTYPE" waiting="0.00" lane="333061566_0" pos="9.38" speed="7.94" angle="56.67" x="1199.98" y="358.22"/>
        <vehicle id="3" eclass="HBEFA3/PC_G_EU4" CO2="2230.17" CO="39.68" HC="0.23" NOx="0.80" PMx="0.02" fuel="711.35" electricity="0.00" noise="60.71" route="!3" type="DEFAULT_VEHTYPE" waiting="0.00" lane="234000028_0" pos="39.48" speed="8.21" angle="146.57" x="1502.59" y="619.01"/>
        <vehicle id="4" eclass="HBEFA3/PC_G_EU4" CO2="4943.02" CO="117.49" HC="0.65" NOx="2.13" PMx="0.10" fuel="1576.61" electricity="0.00" noise="66.13" route="!4" type="DEFAULT_VEHTYPE" waiting="0.00" lane="-128171761_0" pos="9.54" speed="6.32" angle="146.55" x="1275.13" y="678.05"/>
        <vehicle id="5" eclass="HBEFA3/PC_G_EU4" CO2="1808.69" CO="53.01" HC="0.28" NOx="0.65" PMx="0.02" fuel="576.92" electricity="0.00" noise="58.49" route="!5" type="DEFAULT_VEHTYPE" waiting="0.00" lane=":7884134654_1_0" pos="7.89" speed="6.32" angle="237.21" x="1301.51" y="428.47"/>
        <vehicle id="6" eclass="HBEFA3/PC_G_EU4" CO2="5767.08" CO="135.67" HC="0.75" NOx="2.52" PMx="0.12" fuel="1839.44" electricity="0.00" noise="68.38" route="!6" type="DEFAULT_VEHTYPE" waiting="0.00" lane=":7702074848_1_0" pos="8.27" speed="6.22" angle="236.58" x="1029.83" y="541.15"/>
        <vehicle id="7" eclass="HBEFA3/PC_G_EU4" CO2="2964.82" CO="147.97" HC="0.74" NOx="1.33" PMx="0.07" fuel="945.69" electricity="0.00" noise="62.60" route="!7" type="DEFAULT_VEHTYPE" waiting="0.00" lane="30568275#2_0" pos="6.49" speed="1.39" angle="327.01" x="1258.28" y="418.94"/>
    </timestep>
    <timestep time="16.00">
        <vehicle id="0" eclass="HBEFA3/PC_G_EU4" CO2="0.00" CO="0.00" HC="0.00" NOx="0.00" PMx="0.00" fuel="0.00" electricity="0.00" noise="53.59" route="!0" type="DEFAULT_VEHTYPE" waiting="0.00" lane=":300020877_0_0" pos="1.56" speed="6.17" angle="326.93" x="1195.98" y="514.91"/>
        <vehicle id="1" eclass="HBEFA3/PC_G_EU4" CO2="4466.80" CO="91.19" HC="0.52" NOx="1.87" PMx="0.08" fuel="1424.71" electricity="0.00" noise="64.60" route="!1" type="DEFAULT_VEHTYPE" waiting="0.00" lane="-62212960_0" pos="19.30" speed="7.72" angle="326.56" x="1472.88" y="669.83"/>
        <vehicle id="2" eclass="HBEFA3/PC_G_EU4" CO2="2759.39" CO="50.18" HC="0.29" NOx="1.05" PMx="0.03" fuel="880.14" electricity="0.00" noise="61.58" route="!2" type="DEFAULT_VEHTYPE" waiting="0.00" lane="333061567#0_0" pos="0.58" speed="8.25" angle="56.67" x="1206.88" y="362.76"/>
        <vehicle id="3" eclass="HBEFA3/PC_G_EU4" CO2="1865.23" CO="33.32" HC="0.19" NOx="0.63" PMx="0.01" fuel="594.95" electricity="0.00" noise="60.06" route="!3" type="DEFAULT_VEHTYPE" waiting="0.00" lane="234000028_0" pos="47.59" speed="8.11" angle="146.57" x="1507.06" y="612.25"/>
        <vehicle id="4" eclass="HBEFA3/PC_G_EU4" CO2="6041.60" CO="118.55" HC="0.68" NOx="2.60" PMx="0.12" fuel="1926.99" electricity="0.00" noise="67.61" route="!4" type="DEFAULT_VEHTYPE" waiting="0.00" lane=":7676890497_6_0" pos="4.50" speed="8.17" angle="146.55" x="1278.50" y="672.95"/>
        <vehicle id="5" eclass="HBEFA3/PC_G_EU4" CO2="0.00" CO="0.00" HC="0.00" NOx="0.00" PMx="0.00" fuel="0.00" electricity="0.00" noise="56.76" route="!5" type="DEFAULT_VEHTYPE" waiting="0.00" lane="-42919376#0_0" pos="4.24" speed="5.76" angle="236.50" x="1296.70" y="425.30"/>
        <vehicle id="6" eclass="HBEFA3/PC_G_EU4" CO2="7385.07" CO="141.81" HC="0.82" NOx="3.22" PMx="0.15" fuel="2355.49" electricity="0.00" noise="69.97" route="!6" type="DEFAULT_VEHTYPE" waiting="0.00" lane="-114554802#5_0" pos="7.46" speed="8.59" angle="236.60" x="1022.66" y="536.42"/>
        <vehicle id="7" eclass="HBEFA3/PC_G_EU4" CO2="3285.15" CO="133.16" HC="0.68" NOx="1.44" PMx="0.07" fuel="1047.85" electricity="0.00" noise="62.92" route="!7" type="DEFAULT_VEHTYPE" waiting="0.00" lane="30568275#2_0" pos="9.23" speed="2.73" angle="327.01" x="1256.79" y="421.23"/>
    </timestep>
    <timestep time="17.00">
        <vehicle id="0" eclass="HBEFA3/PC_G_EU4" CO2="5493.82" CO="110.97" HC="0.63" NOx="2.35" PMx="0.11" fuel="1752.28" electricity="0.00" noise="66.66" route="!0" type="DEFAULT_VEHTYPE" waiting="0.00" lane=":25291591_3_0" pos="5.73" speed="7.84" angle="326.45" x="1191.66" y="521.44"/>
        <vehicle id="1" eclass="HBEFA3/PC_G_EU4" CO2="0.00" CO="0.00" HC="0.00" NOx="0.00" PMx="0.00" fuel="0.00" electricity="0.00" noise="59.18" route="!1" type="DEFAULT_VEHTYPE" waiting="0.00" lane="-62212960_0" pos="26.79" speed="7.48" angle="326.56" x="1468.76" y="676.08"/>
        <vehicle id="2" eclass="HBEFA3/PC_G_EU4" CO2="2252.73" CO="38.93" HC="0.23" NOx="0.80" PMx="0.02" fuel="718.54" electricity="0.00" noise="60.82" route="!2" type="DEFAULT_VEHTYPE" waiting="0.00" lane="333061567#0_0" pos="8.90" speed="8.32" angle="56.56" x="1213.83" y="367.34"/>
        <vehicle id="3" eclass="HBEFA3/PC_G_EU4" CO2="3405.95" CO="58.84" HC="0.35" NOx="1.34" PMx="0.05" fuel="1086.35" electricity="0.00" noise="62.83" route="!3" type="DEFAULT_VEHTYPE" waiting="0.00" lane="76333545_0" pos="2.05" speed="8.69" angle="146.29" x="1511.87" y="605.01"/>
        <vehicle id="4" eclass="HBEFA3/PC_G_EU4" CO2="0.00" CO="0.00" HC="0.00" NOx="0.00" PMx="0.00" fuel="0.00" electricity="0.00" noise="58.58" route="!4" type="DEFAULT_VEHTYPE" waiting="0.00" lane="-62200559#0_0" pos="4.08" speed="7.70" angle="146.53" x="1282.75" y="666.53"/>
        <vehicle id="5" eclass="HBEFA3/PC_G_EU4" CO2="2690.13" CO="73.70" HC="0.40" NOx="1.07" PMx="0.04" fuel="858.06" electricity="0.00" noise="60.41" route="!5" type="DEFAULT_VEHTYPE" waiting="0.00" lane=":537519882_0_0" pos="2.30" speed="6.11" angle="236.40" x="1291.61" y="421.91"/>
        <vehicle id="6" eclass="HBEFA3/PC_G_EU4" CO2="0.00" CO="0.00" HC="0.00" NOx="0.00" PMx="0.00" fuel="0.00" electricity="0.00" noise="56.90" route="!6" type="DEFAULT_VEHTYPE" waiting="0.00" lane="-114554802#5_0" pos="15.01" speed="7.55" angle="236.60" x="1016.36" y="532.27"/>
        <vehicle id="7" eclass="HBEFA3/PC_G_EU4" CO2="5233.99" CO="139.77" HC="0.76" NOx="2.30" PMx="0.11" fuel="1669.42" electricity="0.00" noise="68.20" route="!7" type="DEFAULT_VEHTYPE" waiting="0.00" lane="30568275#2_0" pos="14.29" speed="5.06" angle="327.01" x="1254.03" y="425.47"/>
    </timestep>
    <timestep time="18.00">
        <vehicle id="0" eclass="HBEFA3/PC_G_EU4" CO2="2546.15" CO="47.88" HC="0.27" NOx="0.95" PMx="0.03" fuel="812.13" electricity="0.00" noise="61.12" route="!0" type="DEFAULT_VEHTYPE" waiting="0.00" lane=":299968940_0_0" pos="2.07" speed="8.06" angle="326.42" x="1187.20" y="528.15"/>
        <vehicle id="1" eclass="HBEFA3/PC_G_EU4" CO2="0.00" CO="0.00" HC="0.00" NOx="0.00" PMx="0.00" fuel="0.00" electricity="0.00" noise="58.03" route="!1" type="DEFAULT_VEHTYPE" waiting="0.00" lane="-36726224_0" pos="6.51" speed="7.01" angle="327.98" x="1465.04" y="682.01"/>
        <vehicle id="2" eclass="HBEFA3/PC_G_EU4" CO2="0.00" CO="0.00" HC="0.00" NOx="0.00" PMx="0.00" fuel="0.00" electricity="0.00" noise="59.17" route="!2" type="DEFAULT_VEHTYPE" waiting="0.00" lane=":7631663001_2_0" pos="1.84" speed="7.97" angle="56.61" x="1220.48" y="371.73"/>
        <vehicle id="3" eclass="HBEFA3/PC_G_EU4" CO2="0.00" CO="0.00" HC="0.00" NOx="0.00" PMx="0.00" fuel="0.00" electricity="0.00" noise="57.54" route="!3" type="DEFAULT_VEHTYPE" waiting="0.00" lane="76333545_0" pos="9.86" speed="7.80" angle="146.08" x="1516.22" y="598.54"/>
        <vehicle id="4" eclass="HBEFA3/PC_G_EU4" CO2="3137.67" CO="58.62" HC="0.34" NOx="1.23" PMx="0.04" fuel="1000.79" electricity="0.00" noise="62.19" route="!4" type="DEFAULT_VEHTYPE" waiting="0.00" lane="-62200559#0_0" pos="12.26" speed="8.19" angle="146.53" x="1287.26" y="659.70"/>
        <vehicle id="5" eclass="HBEFA3/PC_G_EU4" CO2="3157.10" CO="75.93" HC="0.42" NOx="1.27" PMx="0.05" fuel="1006.99" electricity="0.00" noise="61.73" route="!5" type="DEFAULT_VEHTYPE" waiting="0.00" lane=":537519882_0_0" pos="9.01" speed="6.71" angle="236.43" x="1286.02" y="418.21"/>
        <vehicle id="6" eclass="HBEFA3/PC_G_EU4" CO2="4736.93" CO="85.99" HC="0.50" NOx="1.97" PMx="0.08" fuel="1510.87" electricity="0.00" noise="65.07" route="!6" type="DEFAULT_VEHTYPE" waiting="0.00" lane="-114554802#5_0" pos="23.72" speed="8.71" angle="236.60" x="1009.09" y="527.48"/>
        <vehicle id="7" eclass="HBEFA3/PC_G_EU4" CO2="4199.05" CO="102.15" HC="0.56" NOx="1.78" PMx="0.08" fuel="1339.32" electricity="0.00" noise="64.23" route="!7" type="DEFAULT_VEHTYPE" waiting="0.00" lane="30568275#2_0" pos="20.61" speed="6.32" angle="327.01" x="1250.59" y="430.77"/>
        <vehicle id="8" eclass="HBEFA3/PC_G_EU4" CO2="2624.72" CO="164.78" HC="0.81" NOx="1.20" PMx="0.07" fuel="837.22" electricity="0.00" noise="55.94" route="!8" type="DEFAULT_VEHTYPE" waiting="0.00" lane="-42919376#0_0" pos="5.10" speed="0.00" angle="236.37" x="1295.99" y="424.82"/>