<?xml version="1.0" encoding="UTF-8"?>

<!-- generated on 2024-11-28 19:23:27 by Eclipse SUMO sumo Version 1.21.0
<sumoConfiguration xmlns:xsi="http://www.w3.org/2001/XMLSchema-instance" xsi:noNamespaceSchemaLocation="http://sumo.dlr.de/xsd/sumoConfiguration.xsd">

    <input>
        <net-file value="kamppi.net.xml"/>
        <route-files value="offpeak.rou.xml"/>
        <additional-files value="additional.add.xml"/>
    </input>

    <output>
        <emission-output value="emission_offpeak.xml"/>
        <queue-output value="queue_offpeak.xml"/>
        <summary-output value="summary_offpeak.xml"/>
        <tripinfo-output value="tripinfo_offpeak.xml"/>
    </output>

    <time>
        <begin value="0"/>
        <end value="1800"/>
        <step-length value="1"/>
    </time>

    <processing>
        <max-num-vehicles value="500"/>
    </processing>

    <traci_server>
        <remote-port value="63734"/>
    </traci_server>

</sumoConfiguration>
-->

<queue-export xmlns:xsi="http://www.w3.org/2001/XMLSchema-instance" xsi:noNamespaceSchemaLocation="http://sumo.dlr.de/xsd/queue_file.xsd">
    <data timestep="0.00">
        <lanes/>
    </data>
    <data timestep="1.00">
        <lanes/>
    </data>
    <data timestep="2.00">
        <lanes>
            <lane id="-76333547_0" queueing_time="0.00" queueing_length="0.00" queueing_length_experimental="12.59"/>
        </lanes>
    </data>
    <data timestep="3.00">
        <lanes/>
    </data>
    <data timestep="4.00">
        <lanes>
            <lane id="333061565_0" queueing_time="0.00" queueing_length="0.00" queueing_length_experimental="14.55"/>
        </lanes>
    </data>
    <data timestep="5.00">
        <lanes/>
    </data>
    <data timestep="6.00">
        <lanes/>
    </data>
    <data timestep="7.00">
        <lanes/>
    </data>
    <data timestep="8.00">
        <lanes>
            <lane id="128171761_0" queueing_time="0.00" queueing_length="0.00" queueing_length_experimental="11.88"/>
        </lanes>
    </data>
    <data timestep="9.00">
        <lanes/>
    </data>
    <data timestep="10.00">
        <lanes/>
    </data>
    <data timestep="11.00">
        <lanes/>
    </data>
    <data timestep="12.00">
        <lanes>
            <lane id="-114554802#6_0" queueing_time="0.00" queueing_length="0.00" queueing_length_experimental="9.27"/>
        </lanes>
    </data>
    <data timestep="13.00">
        <lanes/>
    </data>
    <data timestep="14.00">
        <lanes/>
    </data>
    <data timestep="15.00">
        <lanes/>
    </data>
    <data timestep="16.00">
        <lanes/>
    </data>
    <data timestep="17.00">
        <lanes/>
    </data>
    <data timestep="18.00">
        <lanes>
            <lane id="-42919376#0_0" queueing_time="0.00" queueing_length="0.00" queueing_length_experimental="7.96"/>
        </lanes>
    </data>
    <data timestep="19.00">
        <lanes/>
    </data>
    <data timestep="20.00">
        <lanes>
            <lane id="-42919376#0_0" queueing_time="1.00" queueing_length="5.85" queueing_length_experimental="5.85"/>
        </lanes>
    </data>
    <data timestep="21.00">
        <lanes/>
    </data>
    <data timestep="22.00">
        <lanes/>
    </data>
    <data timestep="23.00">
        <lanes/>
    </data>
    <data timestep="24.00">
        <lanes/>
    </data>
    <data timestep="25.00">
        <lanes/>
    </data>
    <data timestep="26.00">
        <lanes/>
    </data>
    <data timestep="27.00">
        <lanes/>
    </data>
    <data timestep="28.00">
        <lanes>
            <lane id=":6488191715_1_0" queueing_time="0.00" queueing_length="0.00" queueing_length_experimental="5.61"/>
        </lanes>
    </data>
    <data timestep="29.00">
        <lanes>
            <lane id=":6488191715_1_0" queueing_time="1.00" queueing_length="5.57" queueing_length_experimental="5.57"/>
        </lanes>
    </data>
    <data timestep="30.00">
        <lanes>
            <lane id=":6488191715_1_0" queueing_time="2.00" queueing_length="5.55" queueing_length_experimental="5.55"/>
            <lane id="37293913#3_0" queueing_time="0.00" queueing_length="0.00" queueing_length_experimental="16.38"/>
        </lanes>
    </data>
    <data timestep="31.00">
        <lanes>
            <lane id=":6488191715_1_0" queueing_time="3.00" queueing_length="5.55" queueing_length_experimental="5.55"/>
            <lane id="37293913#3_0" queueing_time="0.00" queueing_length="0.00" queueing_length_experimental="15.00"/>
        </lanes>
    </data>
    <data timestep="32.00">
        <lanes>
            <lane id=":6488191715_1_0" queueing_time="4.00" queueing_length="5.55" queueing_length_experimental="5.55"/>
        </lanes>
    </data>
    <data timestep="33.00">
        <lanes>
            <lane id=":6488191715_1_0" queueing_time="5.00" queueing_length="5.55" queueing_length_experimental="5.55"/>
        </lanes>
    </data>
    <data timestep="34.00">
        <lanes>
            <lane id=":6488191715_1_0" queueing_time="6.00" queueing_length="5.55" queueing_length_experimental="5.55"/>
        </lanes>
    </data>
    <data timestep="35.00">
        <lanes>
            <lane id=":300020623_0_1" queueing_time="0.00" queueing_length="0.00" queueing_length_experimental="5.81"/>
            <lane id=":6488191715_1_0" queueing_time="7.00" queueing_length="5.55" queueing_length_experimental="5.55"/>
        </lanes>
    </data>
    <data timestep="36.00">
        <lanes>
            <lane id=":300020623_0_1" queueing_time="1.00" queueing_length="5.80" queueing_length_experimental="5.80"/>
            <lane id=":6488191715_1_0" queueing_time="8.00" queueing_length="5.55" queueing_length_experimental="5.55"/>
        </lanes>
    </data>
    <data timestep="37.00">
        <lanes>
            <lane id=":300020623_0_1" queueing_time="2.00" queueing_length="5.80" queueing_length_experimental="5.80"/>
            <lane id=":6488191715_1_0" queueing_time="9.00" queueing_length="5.55" queueing_length_experimental="5.55"/>
        </lanes>
    </data>
    <data timestep="38.00">
        <lanes>
            <lane id=":300020623_0_1" queueing_time="3.00" queueing_length="5.80" queueing_length_experimental="5.80"/>
            <lane id=":6488191715_1_0" queueing_time="10.00" queueing_length="5.55" queueing_length_experimental="5.55"/>
        </lanes>
    </data>
    <data timestep="39.00">
        <lanes>
            <lane id=":300020623_0_1" queueing_time="4.00" queueing_length="5.80" queueing_length_experimental="5.80"/>
            <lane id=":6488191715_1_0" queueing_time="11.00" queueing_length="5.55" queueing_length_experimental="5.55"/>
        </lanes>
    </data>
    <data timestep="40.00">
        <lanes>
            <lane id=":300020623_0_1" queueing_time="5.00" queueing_length="5.80" queueing_length_experimental="5.80"/>
            <lane id=":6488191715_1_0" queueing_time="12.00" queueing_length="5.55" queueing_length_experimental="5.55"/>
        </lanes>
    </data>
    <data timestep="41.00">
        <lanes>
            <lane id=":300020623_0_1" queueing_time="6.00" queueing_length="5.80" queueing_length_experimental="5.80"/>
            <lane id=":6488191715_1_0" queueing_time="13.00" queueing_length="5.55" queueing_length_experimental="5.55"/>
        </lanes>
    </data>
    <data timestep="42.00">
        <lanes>
            <lane id=":300020623_0_1" queueing_time="7.00" queueing_length="5.80" queueing_length_experimental="5.80"/>
            <lane id=":6488191715_1_0" queueing_time="14.00" queueing_length="5.55" queueing_length_experimental="5.55"/>
        </lanes>
    </data>
    <data timestep="43.00">
        <lanes>
            <lane id=":300020623_0_1" queueing_time="8.00" queueing_length="5.80" queueing_length_experimental="5.80"/>
            <lane id=":6488191715_1_0" queueing_time="15.00" queueing_length="5.55" queueing_length_experimental="5.55"/>
        </lanes>
    </data>
    <data timestep="44.00">
        <lanes>
            <lane id=":300020623_0_1" queueing_time="9.00" queueing_length="5.80" queueing_length_experimental="5.80"/>
            <lane id=":6488191715_1_0" queueing_time="16.00" queueing_length="5.55" queueing_length_experimental="5.55"/>
            <lane id="-21081120#4_0" queueing_time="0.00" queueing_length="0.00" queueing_length_experimental="6.09"/>
        </lanes>
    </data>
    <data timestep="45.00">
        <lanes>
            <lane id="-21081120#4_0" queueing_time="1.00" queueing_length="6.04" queueing_length_experimental="6.04"/>
        </lanes>
    </data>
    <data timestep="46.00">
        <lanes>
            <lane id="-21081120#4_0" queueing_time="2.00" queueing_length="6.02" queueing_length_experimental="6.02"/>
            <lane id="-62213052#2_0" queueing_time="0.00" queueing_length="0.00" queueing_length_experimental="8.91"/>
        </lanes>
    </data>
    <data timestep="47.00">
        <lanes>
            <lane id="-21081120#4_0" queueing_time="3.00" queueing_length="6.01" queueing_length_experimental="6.01"/>
        </lanes>
    </data>
    <data timestep="48.00">
        <lanes>
            <lane id=":310150364_1_0" queueing_time="0.00" queueing_length="0.00" queueing_length_experimental="5.92"/>
            <lane id="-21081120#4_0" queueing_time="4.00" queueing_length="6.00" queueing_length_experimental="6.00"/>
        </lanes>
    </data>
    <data timestep="49.00">
        <lanes>
            <lane id=":310150364_1_0" queueing_time="1.00" queueing_length="5.83" queueing_length_experimental="5.83"/>
            <lane id="-21081120#4_0" queueing_time="5.00" queueing_length="6.00" queueing_length_experimental="6.00"/>
            <lane id="42919371_0" queueing_time="0.00" queueing_length="0.00" queueing_length_experimental="9.45"/>
        </lanes>
    </data>
    <data timestep="50.00">
        <lanes>
            <lane id=":310150364_1_0" queueing_time="2.00" queueing_length="5.81" queueing_length_experimental="5.81"/>
            <lane id="-21081120#4_0" queueing_time="6.00" queueing_length="6.00" queueing_length_experimental="6.00"/>
            <lane id="42919371_0" queueing_time="0.00" queueing_length="0.00" queueing_length_experimental="9.04"/>
        </lanes>
    </data>
    <data timestep="51.00">
        <lanes>
            <lane id=":310150364_1_0" queueing_time="3.00" queueing_length="5.80" queueing_length_experimental="5.80"/>
            <lane id="-21081120#4_0" queueing_time="7.00" queueing_length="6.00" queueing_length_experimental="6.00"/>
            <lane id="42919371_0" queueing_time="0.00" queueing_length="0.00" queueing_length_experimental="8.70"/>
        </lanes>
    </data>
    <data timestep="52.00">
        <lanes>
            <lane id=":296250755_0_0" queueing_time="1.00" queueing_length="5.81" queueing_length_experimental="5.81"/>
            <lane id=":298372991_0_0" queueing_time="0.00" queueing_length="0.00" queueing_length_experimental="5.34"/>
            <lane id=":310150364_1_0" queueing_time="4.00" queueing_length="5.80" queueing_length_experimental="5.80"/>
            <lane id="-21081120#4_0" queueing_time="8.00" queueing_length="6.00" queueing_length_experimental="6.00"/>
            <lane id="42919371_0" queueing_time="1.00" queueing_length="8.68" queueing_length_experimental="8.68"/>
        </lanes>
    </data>
    <data timestep="53.00">
        <lanes>
            <lane id=":296250755_0_0" queueing_time="2.00" queueing_length="5.80" queueing_length_experimental="5.80"/>
            <lane id=":310150364_1_0" queueing_time="5.00" queueing_length="5.80" queueing_length_experimental="5.80"/>
            <lane id="-21081120#4_0" queueing_time="9.00" queueing_length="6.00" queueing_length_experimental="6.00"/>
            <lane id="42919371_0" queueing_time="2.00" queueing_length="8.67" queueing_length_experimental="8.67"/>
        </lanes>
    </data>
    <data timestep="54.00">
        <lanes>
            <lane id=":296250755_0_0" queueing_time="3.00" queueing_length="5.80" queueing_length_experimental="5.80"/>
            <lane id=":310150364_1_0" queueing_time="6.00" queueing_length="5.80" queueing_length_experimental="5.80"/>
            <lane id="-21081120#4_0" queueing_time="10.00" queueing_length="6.00" queueing_length_experimental="6.00"/>
            <lane id="42919371_0" queueing_time="3.00" queueing_length="8.66" queueing_length_experimental="8.66"/>
        </lanes>
    </data>
    <data timestep="55.00">
        <lanes>
            <lane id=":296250755_0_0" queueing_time="4.00" queueing_length="5.80" queueing_length_experimental="5.80"/>
            <lane id=":310150364_1_0" queueing_time="7.00" queueing_length="5.80" queueing_length_experimental="5.80"/>
            <lane id="-21081120#4_0" queueing_time="11.00" queueing_length="6.00" queueing_length_experimental="6.00"/>
            <lane id="42919371_0" queueing_time="4.00" queueing_length="8.66" queueing_length_experimental="8.66"/>
            <lane id="81796384_0" queueing_time="0.00" queueing_length="0.00" queueing_length_experimental="21.68"/>
        </lanes>
    </data>
    <data timestep="56.00">
        <lanes>
            <lane id=":296250755_0_0" queueing_time="5.00" queueing_length="5.80" queueing_length_experimental="5.80"/>
            <lane id=":310150364_1_0" queueing_time="8.00" queueing_length="5.80" queueing_length_experimental="5.80"/>
            <lane id="-21081120#4_0" queueing_time="12.00" queueing_length="6.00" queueing_length_experimental="6.00"/>
            <lane id="42919371_0" queueing_time="5.00" queueing_length="8.66" queueing_length_experimental="8.66"/>
            <lane id="42919374#2_0" queueing_time="0.00" queueing_length="0.00" queueing_length_experimental="13.19"/>
        </lanes>
    </data>
    <data timestep="57.00">
        <lanes>
            <lane id=":296250755_0_0" queueing_time="6.00" queueing_length="5.80" queueing_length_experimental="5.80"/>
            <lane id=":310150364_1_0" queueing_time="9.00" queueing_length="5.80" queueing_length_experimental="5.80"/>
            <lane id="-21081120#4_0" queueing_time="13.00" queueing_length="6.00" queueing_length_experimental="6.00"/>
            <lane id="42919371_0" queueing_time="6.00" queueing_length="8.66" queueing_length_experimental="8.66"/>
        </lanes>
    </data>
    <data timestep="58.00">
        <lanes>
            <lane id=":296250736_1_0" queueing_time="0.00" queueing_length="0.00" queueing_length_experimental="5.96"/>
            <lane id=":296250755_0_0" queueing_time="7.00" queueing_length="5.80" queueing_length_experimental="5.80"/>
            <lane id=":298372999_0_0" queueing_time="0.00" queueing_length="0.00" queueing_length_experimental="5.36"/>
            <lane id=":310150364_1_0" queueing_time="10.00" queueing_length="5.80" queueing_length_experimental="5.80"/>
            <lane id="-21081120#4_0" queueing_time="14.00" queueing_length="6.00" queueing_length_experimental="6.00"/>
            <lane id="42919371_0" queueing_time="7.00" queueing_length="8.66" queueing_length_experimental="8.66"/>
        </lanes>
    </data>
    <data timestep="59.00">
        <lanes>
            <lane id=":296250736_1_0" queueing_time="0.00" queueing_length="0.00" queueing_length_experimental="5.82"/>
            <lane id=":296250755_0_0" queueing_time="8.00" queueing_length="5.80" queueing_length_experimental="5.80"/>
            <lane id=":310150364_1_0" queueing_time="11.00" queueing_length="5.80" queueing_length_experimental="5.80"/>
            <lane id="-21081120#4_0" queueing_time="15.00" queueing_length="6.00" queueing_length_experimental="6.00"/>
            <lane id="42919371_0" queueing_time="8.00" queueing_length="8.66" queueing_length_experimental="8.66"/>
        </lanes>
    </data>
    <data timestep="60.00">
        <lanes>
            <lane id=":296250736_1_0" queueing_time="1.00" queueing_length="5.80" queueing_length_experimental="5.80"/>
            <lane id=":296250755_0_0" queueing_time="9.00" queueing_length="5.80" queueing_length_experimental="5.80"/>
            <lane id=":310150364_1_0" queueing_time="12.00" queueing_length="5.80" queueing_length_experimental="5.80"/>
            <lane id="-1122952687#0_0" queueing_time="1.00" queueing_length="5.12" queueing_length_experimental="5.12"/>
            <lane id="-21081120#4_0" queueing_time="16.00" queueing_length="6.00" queueing_length_experimental="6.00"/>
            <lane id="42919371_0" queueing_time="9.00" queueing_length="8.66" queueing_length_experimental="8.66"/>
        </lanes>
    </data>
    <data timestep="61.00">
        <lanes>
            <lane id=":296250736_1_0" queueing_time="2.00" queueing_length="5.80" queueing_length_experimental="5.80"/>
            <lane id=":296250755_0_0" queueing_time="10.00" queueing_length="5.80" queueing_length_experimental="5.80"/>
            <lane id=":310150364_1_0" queueing_time="13.00" queueing_length="5.80" queueing_length_experimental="5.80"/>
            <lane id="-1122952687#0_0" queueing_time="2.00" queueing_length="5.10" queueing_length_experimental="5.10"/>
            <lane id="-21081120#4_0" queueing_time="17.00" queueing_length="6.00" queueing_length_experimental="6.00"/>
            <lane id="42919371_0" queueing_time="10.00" queueing_length="8.66" queueing_length_experimental="16.41"/>
        </lanes>
    </data>
    <data timestep="62.00">
        <lanes>
            <lane id=":296250736_1_0" queueing_time="3.00" queueing_length="5.80" queueing_length_experimental="5.80"/>
            <lane id=":296250755_0_0" queueing_time="11.00" queueing_length="5.80" queueing_length_experimental="5.80"/>
            <lane id=":310150364_1_0" queueing_time="14.00" queueing_length="5.80" queueing_length_experimental="5.80"/>
            <lane id="-1122952687#0_0" queueing_time="3.00" queueing_length="5.10" queueing_length_experimental="5.10"/>
            <lane id="-21081120#4_0" queueing_time="18.00" queueing_length="6.00" queueing_length_experimental="6.00"/>
            <lane id="-42919374#2_0" queueing_time="0.00" queueing_length="0.00" queueing_length_experimental="13.19"/>
            <lane id="42919371_0" queueing_time="11.00" queueing_length="8.66" queueing_length_experimental="16.23"/>
        </lanes>
    </data>
    <data timestep="63.00">
        <lanes>
            <lane id=":296250736_1_0" queueing_time="4.00" queueing_length="5.80" queueing_length_experimental="5.80"/>
            <lane id=":296250755_0_0" queueing_time="12.00" queueing_length="5.80" queueing_length_experimental="5.80"/>
            <lane id=":310150364_1_0" queueing_time="15.00" queueing_length="5.80" queueing_length_experimental="5.80"/>
            <lane id="-1122952687#0_0" queueing_time="4.00" queueing_length="5.10" queueing_length_experimental="5.10"/>
            <lane id="-21081120#4_0" queueing_time="19.00" queueing_length="6.00" queueing_length_experimental="6.00"/>
            <lane id="42919371_0" queueing_time="12.00" queueing_length="16.19" queueing_length_experimental="16.19"/>
        </lanes>
    </data>
    <data timestep="64.00">
        <lanes>
            <lane id=":296250736_1_0" queueing_time="5.00" queueing_length="5.80" queueing_length_experimental="5.80"/>
            <lane id=":296250755_0_0" queueing_time="13.00" queueing_length="5.80" queueing_length_experimental="5.80"/>
            <lane id=":310150364_1_0" queueing_time="16.00" queueing_length="5.80" queueing_length_experimental="5.80"/>
            <lane id="-1122952687#0_0" queueing_time="5.00" queueing_length="5.10" queueing_length_experimental="5.10"/>
            <lane id="-21081120#4_0" queueing_time="20.00" queueing_length="6.00" queueing_length_experimental="6.00"/>
            <lane id="42919371_0" queueing_time="13.00" queueing_length="16.17" queueing_length_experimental="16.17"/>
            <lane id="62212737_0" queueing_time="0.00" queueing_length="0.00" queueing_length_experimental="20.15"/>
        </lanes>
    </data>
    <data timestep="65.00">
        <lanes>
            <lane id=":296250736_1_0" queueing_time="6.00" queueing_length="5.80" queueing_length_experimental="5.80"/>
            <lane id=":296250755_0_0" queueing_time="14.00" queueing_length="5.80" queueing_length_experimental="5.80"/>
            <lane id=":310150364_1_0" queueing_time="17.00" queueing_length="5.80" queueing_length_experimental="5.80"/>
            <lane id="-21081120#4_0" queueing_time="21.00" queueing_length="6.00" queueing_length_experimental="6.00"/>
            <lane id="42919371_0" queueing_time="14.00" queueing_length="16.17" queueing_length_experimental="16.17"/>
        </lanes>
    </data>
    <data timestep="66.00">
        <lanes>
            <lane id=":296250736_1_0" queueing_time="7.00" queueing_length="5.80" queueing_length_experimental="5.80"/>
            <lane id=":296250755_0_0" queueing_time="15.00" queueing_length="5.80" queueing_length_experimental="5.80"/>
            <lane id=":310150364_1_0" queueing_time="18.00" queueing_length="5.80" queueing_length_experimental="5.80"/>
            <lane id="-21081120#4_0" queueing_time="22.00" queueing_length="6.00" queueing_length_experimental="13.65"/>
            <lane id="42919371_0" queueing_time="15.00" queueing_length="16.16" queueing_length_experimental="16.16"/>
            <lane id="76333545_0" queueing_time="0.00" queueing_length="0.00" queueing_length_experimental="11.43"/>
        </lanes>
    </data>
    <data timestep="67.00">
        <lanes>
            <lane id=":296250736_1_0" queueing_time="8.00" queueing_length="5.80" queueing_length_experimental="5.80"/>
            <lane id=":296250755_0_0" queueing_time="16.00" queueing_length="5.80" queueing_length_experimental="5.80"/>
            <lane id=":310150364_1_0" queueing_time="19.00" queueing_length="5.80" queueing_length_experimental="5.80"/>
            <lane id="-21081120#4_0" queueing_time="23.00" queueing_length="6.00" queueing_length_experimental="13.55"/>
            <lane id="42919371_0" queueing_time="16.00" queueing_length="16.16" queueing_length_experimental="16.16"/>
        </lanes>
    </data>
    <data timestep="68.00">
        <lanes>
            <lane id=":296250736_1_0" queueing_time="9.00" queueing_length="5.80" queueing_length_experimental="5.80"/>
            <lane id=":296250755_0_0" queueing_time="17.00" queueing_length="5.80" queueing_length_experimental="5.80"/>
            <lane id=":310150364_1_0" queueing_time="20.00" queueing_length="5.80" queueing_length_experimental="5.80"/>
            <lane id="-21081120#4_0" queueing_time="24.00" queueing_length="13.52" queueing_length_experimental="13.52"/>
            <lane id="-62213052#2_0" queueing_time="0.00" queueing_length="0.00" queueing_length_experimental="8.91"/>
            <lane id="37293912#0_0" queueing_time="1.00" queueing_length="5.12" queueing_length_experimental="5.12"/>
            <lane id="42919371_0" queueing_time="17.00" queueing_length="16.16" queueing_length_experimental="16.16"/>
        </lanes>
    </data>
    <data timestep="69.00">
        <lanes>
            <lane id=":296250736_1_0" queueing_time="10.00" queueing_length="5.80" queueing_length_experimental="5.80"/>
            <lane id=":296250755_0_0" queueing_time="18.00" queueing_length="5.80" queueing_length_experimental="5.80"/>
            <lane id=":310150364_1_0" queueing_time="21.00" queueing_length="5.80" queueing_length_experimental="5.80"/>
            <lane id="-21081120#4_0" queueing_time="25.00" queueing_length="13.51" queueing_length_experimental="13.51"/>
            <lane id="37293912#0_0" queueing_time="2.00" queueing_length="5.11" queueing_length_experimental="5.11"/>
            <lane id="42919371_0" queueing_time="18.00" queueing_length="16.16" queueing_length_experimental="16.16"/>
        </lanes>
    </data>
    <data timestep="70.00">
        <lanes>
            <lane id=":296250736_1_0" queueing_time="11.00" queueing_length="5.80" queueing_length_experimental="5.80"/>
            <lane id=":296250755_0_0" queueing_time="19.00" queueing_length="5.80" queueing_length_experimental="5.80"/>
            <lane id=":310150364_1_0" queueing_time="22.00" queueing_length="5.80" queueing_length_experimental="5.80"/>
            <lane id="-21081120#4_0" queueing_time="26.00" queueing_length="13.50" queueing_length_experimental="13.50"/>
            <lane id="37293912#0_0" queueing_time="3.00" queueing_length="5.10" queueing_length_experimental="5.10"/>
            <lane id="42919371_0" queueing_time="19.00" queueing_length="16.16" queueing_length_experimental="16.16"/>
        </lanes>
    </data>
    <data timestep="71.00">
        <lanes>
            <lane id=":296250736_1_0" queueing_time="12.00" queueing_length="5.80" queueing_length_experimental="5.80"/>
            <lane id=":296250755_0_0" queueing_time="20.00" queueing_length="5.80" queueing_length_experimental="5.80"/>
            <lane id=":310150364_1_0" queueing_time="23.00" queueing_length="5.80" queueing_length_experimental="5.80"/>
            <lane id="-21081120#4_0" queueing_time="27.00" queueing_length="13.50" queueing_length_experimental="13.50"/>
            <lane id="37293912#0_0" queueing_time="4.00" queueing_length="5.10" queueing_length_experimental="5.10"/>
            <lane id="42919371_0" queueing_time="20.00" queueing_length="16.16" queueing_length_experimental="16.16"/>
        </lanes>
    </data>
    <data timestep="72.00">
        <lanes>
            <lane id=":296250736_1_0" queueing_time="13.00" queueing_length="5.80" queueing_length_experimental="5.80"/>
            <lane id=":296250755_0_0" queueing_time="21.00" queueing_length="5.80" queueing_length_experimental="5.80"/>
            <lane id=":310150364_1_0" queueing_time="24.00" queueing_length="5.80" queueing_length_experimental="5.80"/>
            <lane id="-21081120#4_0" queueing_time="28.00" queueing_length="13.50" queueing_length_experimental="13.50"/>
            <lane id="37293912#0_0" queueing_time="5.00" queueing_length="5.10" queueing_length_experimental="5.10"/>
            <lane id="42919371_0" queueing_time="21.00" queueing_length="16.16" queueing_length_experimental="16.16"/>
        </lanes>
    </data>
    <data timestep="73.00">
        <lanes>
            <lane id=":296250736_1_0" queueing_time="14.00" queueing_length="5.80" queueing_length_experimental="5.80"/>
            <lane id=":296250755_0_0" queueing_time="22.00" queueing_length="5.80" queueing_length_experimental="5.80"/>
            <lane id=":310150364_1_0" queueing_time="25.00" queueing_length="5.80" queueing_length_experimental="5.80"/>
            <lane id="-21081120#4_0" queueing_time="29.00" queueing_length="13.50" queueing_length_experimental="13.50"/>
            <lane id="37293912#0_0" queueing_time="6.00" queueing_length="5.10" queueing_length_experimental="5.10"/>
            <lane id="42919371_0" queueing_time="22.00" queueing_length="16.16" queueing_length_experimental="16.16"/>
            <lane id="62213052#2_0" queueing_time="1.00" queueing_length="6.00" queueing_length_experimental="6.00"/>
        </lanes>
    </data>
    <data timestep="74.00">
        <lanes>
            <lane id=":296250736_1_0" queueing_time="15.00" queueing_length="5.80" queueing_length_experimental="5.80"/>
            <lane id=":296250755_0_0" queueing_time="23.00" queueing_length="5.80" queueing_length_experimental="5.80"/>
            <lane id=":310150364_1_0" queueing_time="26.00" queueing_length="5.80" queueing_length_experimental="5.80"/>
            <lane id="-21081120#4_0" queueing_time="30.00" queueing_length="13.50" queueing_length_experimental="13.50"/>
            <lane id="114555281#0_0" queueing_time="0.00" queueing_length="0.00" queueing_length_experimental="18.25"/>
            <lane id="37293912#0_0" queueing_time="7.00" queueing_length="5.10" queueing_length_experimental="5.10"/>
            <lane id="42919371_0" queueing_time="23.00" queueing_length="16.16" queueing_length_experimental="16.16"/>
            <lane id="62213052#2_0" queueing_time="2.00" queueing_length="6.00" queueing_length_experimental="6.00"/>
        </lanes>
    </data>
    <data timestep="75.00">
        <lanes>
            <lane id=":296250736_1_0" queueing_time="16.00" queueing_length="5.80" queueing_length_experimental="5.80"/>
            <lane id=":296250755_0_0" queueing_time="24.00" queueing_length="5.80" queueing_length_experimental="5.80"/>
            <lane id=":310150364_1_0" queueing_time="27.00" queueing_length="5.80" queueing_length_experimental="5.80"/>
            <lane id="-21081120#4_0" queueing_time="31.00" queueing_length="13.50" queueing_length_experimental="13.50"/>
            <lane id="114555281#0_0" queueing_time="0.00" queueing_length="0.00" queueing_length_experimental="16.90"/>
            <lane id="37293912#0_0" queueing_time="8.00" queueing_length="5.10" queueing_length_experimental="5.10"/>
            <lane id="42919371_0" queueing_time="24.00" queueing_length="16.16" queueing_length_experimental="16.16"/>
            <lane id="62213052#2_0" queueing_time="3.00" queueing_length="6.00" queueing_length_experimental="6.00"/>
        </lanes>
    </data>
    <data timestep="76.00">
        <lanes>
            <lane id=":296250736_1_0" queueing_time="17.00" queueing_length="5.80" queueing_length_experimental="5.80"/>
            <lane id=":296250755_0_0" queueing_time="25.00" queueing_length="5.80" queueing_length_experimental="5.80"/>