<?xml version="1.0" encoding="UTF-8"?>

<!-- generated on 2024-11-28 19:23:20 by Eclipse SUMO sumo Version 1.21.0
<sumoConfiguration xmlns:xsi="http://www.w3.org/2001/XMLSchema-instance" xsi:noNamespaceSchemaLocation="http://sumo.dlr.de/xsd/sumoConfiguration.xsd">

    <input>
        <net-file value="kamppi.net.xml"/>
        <route-files value="peak.rou.xml"/>
        <additional-files value="additional.add.xml"/>
    </input>

    <output>
        <emission-output value="emission_peak.xml"/>
        <queue-output value="queue_peak.xml"/>
        <summary-output value="summary_peak.xml"/>
        <tripinfo-output value="tripinfo_peak.xml"/>
    </output>

    <time>
        <begin value="0"/>
        <end value="1800"/>
        <step-length value="1"/>
    </time>

    <processing>
        <max-num-vehicles value="500"/>
    </processing>

    <traci_server>
        <remote-port value="63727"/>
    </traci_server>

</sumoConfiguration>
-->

<tripinfos xmlns:xsi="http://www.w3.org/2001/XMLSchema-instance" xsi:noNamespaceSchemaLocation="http://sumo.dlr.de/xsd/tripinfo_file.xsd">
    <tripinfo id="6" depart="1.00" departLane="62212960_0" departPos="5.10" departSpeed="0.00" departDelay="0.40" arrival="37.00" arrivalLane="-234000028_0" arrivalPos="53.91" arrivalSpeed="6.59" duration="36.00" routeLength="198.09" waitingTime="0.00" waitingCount="0" stopTime="0.00" timeLoss="5.87" rerouteNo="0" devices="tripinfo_6 emissions_6" vType="DEFAULT_VEHTYPE" speedFactor="0.83" vaporized="">
        <emissions CO_abs="2047.081074" CO2_abs="71408.961609" HC_abs="10.943851" PMx_abs="1.163489" NOx_abs="29.147930" fuel_abs="22776.846703" electricity_abs="0"/>
    </tripinfo>
    <tripinfo id="240" depart="36.00" departLane="62212737_0" departPos="5.10" departSpeed="0.00" departDelay="12.00" arrival="40.00" arrivalLane="62212737_0" arrivalPos="20.25" arrivalSpeed="7.89" duration="4.00" routeLength="15.15" waitingTime="0.00" waitingCount="0" stopTime="0.00" timeLoss="2.05" rerouteNo="0" devices="tripinfo_240 emissions_240" vType="DEFAULT_VEHTYPE" speedFactor="1.13" vaporized="">
        <emissions CO_abs="557.327732" CO2_abs="19134.604248" HC_abs="2.990031" PMx_abs="0.403254" NOx_abs="8.394688" fuel_abs="6103.141231" electricity_abs="0"/>
    </tripinfo>
    <tripinfo id="241" depart="39.00" departLane="62212737_0" departPos="5.10" departSpeed="0.00" departDelay="14.80" arrival="43.00" arrivalLane="62212737_0" arrivalPos="20.25" arrivalSpeed="7.17" duration="4.00" routeLength="15.15" waitingTime="0.00" waitingCount="0" stopTime="0.00" timeLoss="1.65" rerouteNo="0" devices="tripinfo_241 emissions_241" vType="DEFAULT_VEHTYPE" speedFactor="0.97" vaporized="">
        <emissions CO_abs="511.762678" CO2_abs="17446.807294" HC_abs="2.740226" PMx_abs="0.355815" NOx_abs="7.579803" fuel_abs="5564.819913" electricity_abs="0"/>
    </tripinfo>
    <tripinfo id="282" depart="29.00" departLane="-333061568_0" departPos="5.10" departSpeed="0.00" departDelay="0.80" arrival="43.00" arrivalLane="-333061564_0" arrivalPos="27.90" arrivalSpeed="8.67" duration="14.00" routeLength="90.16" waitingTime="0.00" waitingCount="0" stopTime="0.00" timeLoss="3.06" rerouteNo="0" devices="tripinfo_282 emissions_282" vType="DEFAULT_VEHTYPE" speedFactor="1.08" vaporized="">
        <emissions CO_abs="926.982585" CO2_abs="38003.368461" HC_abs="5.094316" PMx_abs="0.638254" NOx_abs="15.556754" fuel_abs="12121.565758" electricity_abs="0"/>
    </tripinfo>
    <tripinfo id="72" depart="10.00" departLane="28408345#1_0" departPos="5.10" departSpeed="0.00" departDelay="2.80" arrival="47.00" arrivalLane="62212960_0" arrivalPos="27.05" arrivalSpeed="7.61" duration="37.00" routeLength="265.52" waitingTime="0.00" waitingCount="0" stopTime="0.00" timeLoss="3.89" rerouteNo="0" devices="tripinfo_72 emissions_72" vType="DEFAULT_VEHTYPE" speedFactor="0.97" vaporized="">
        <emissions CO_abs="1749.365741" CO2_abs="78588.795098" HC_abs="9.743890" PMx_abs="1.150521" NOx_abs="31.091837" fuel_abs="25066.789952" electricity_abs="0"/>
    </tripinfo>
    <tripinfo id="283" depart="32.00" departLane="-333061568_0" departPos="5.10" departSpeed="0.00" departDelay="3.60" arrival="50.00" arrivalLane="-333061564_0" arrivalPos="27.90" arrivalSpeed="5.03" duration="18.00" routeLength="90.16" waitingTime="0.00" waitingCount="0" stopTime="0.00" timeLoss="3.11" rerouteNo="0" devices="tripinfo_283 emissions_283" vType="DEFAULT_VEHTYPE" speedFactor="0.76" vaporized="">
        <emissions CO_abs="1246.642466" CO2_abs="38937.902552" HC_abs="6.558241" PMx_abs="0.639922" NOx_abs="15.936895" fuel_abs="12419.842597" electricity_abs="0"/>
    </tripinfo>
    <tripinfo id="32" depart="4.00" departLane="62200559#0_0" departPos="5.10" departSpeed="0.00" departDelay="0.80" arrival="53.00" arrivalLane="28408345#1_0" arrivalPos="103.58" arrivalSpeed="9.17" duration="49.00" routeLength="365.40" waitingTime="0.00" waitingCount="0" stopTime="0.00" timeLoss="10.02" rerouteNo="0" devices="tripinfo_32 emissions_32" vType="DEFAULT_VEHTYPE" speedFactor="1.15" vaporized="">
        <emissions CO_abs="2356.651794" CO2_abs="115867.838756" HC_abs="13.400456" PMx_abs="1.900849" NOx_abs="47.060805" fuel_abs="36956.999511" electricity_abs="0"/>
    </tripinfo>
    <tripinfo id="402" depart="43.00" departLane="332402669#3_0" departPos="5.10" departSpeed="0.00" departDelay="2.80" arrival="54.00" arrivalLane="234002366_1" arrivalPos="28.11" arrivalSpeed="4.68" duration="11.00" routeLength="30.67" waitingTime="0.00" waitingCount="0" stopTime="0.00" timeLoss="7.23" rerouteNo="0" devices="tripinfo_402 emissions_402" vType="DEFAULT_VEHTYPE" speedFactor="1.03" vaporized="">
        <emissions CO_abs="775.624836" CO2_abs="23840.878255" HC_abs="4.089892" PMx_abs="0.488954" NOx_abs="10.392157" fuel_abs="7604.311801" electricity_abs="0"/>
    </tripinfo>
    <tripinfo id="403" depart="46.00" departLane="332402669#3_0" departPos="5.10" departSpeed="0.00" departDelay="5.60" arrival="55.00" arrivalLane="234002366_0" arrivalPos="28.11" arrivalSpeed="7.61" duration="9.00" routeLength="30.67" waitingTime="0.00" waitingCount="0" stopTime="0.00" timeLoss="5.36" rerouteNo="0" devices="tripinfo_403 emissions_403" vType="DEFAULT_VEHTYPE" speedFactor="1.10" vaporized="">
        <emissions CO_abs="674.812582" CO2_abs="23043.384812" HC_abs="3.616005" PMx_abs="0.479724" NOx_abs="10.079688" fuel_abs="7349.887676" electricity_abs="0"/>
    </tripinfo>
    <tripinfo id="7" depart="4.00" departLane="62212960_0" departPos="5.10" departSpeed="0.00" departDelay="3.20" arrival="103.00" arrivalLane="-234000028_0" arrivalPos="53.91" arrivalSpeed="3.45" duration="99.00" routeLength="198.09" waitingTime="47.00" waitingCount="3" stopTime="0.00" timeLoss="72.72" rerouteNo="0" devices="tripinfo_7 emissions_7" vType="DEFAULT_VEHTYPE" speedFactor="0.94" vaporized="">
        <emissions CO_abs="11754.200063" CO2_abs="234192.015731" HC_abs="58.993333" PMx_abs="5.316616" NOx_abs="104.350851" fuel_abs="74700.258117" electricity_abs="0"/>
    </tripinfo>
    <tripinfo id="30" depart="3.00" departLane="37293913#3_0" departPos="5.10" departSpeed="0.00" departDelay="0.00" arrival="119.00" arrivalLane="29400781#2_0" arrivalPos="14.15" arrivalSpeed="7.62" duration="116.00" routeLength="296.57" waitingTime="67.00" waitingCount="1" stopTime="0.00" timeLoss="76.70" rerouteNo="0" devices="tripinfo_30 emissions_30" vType="DEFAULT_VEHTYPE" speedFactor="0.93" vaporized="">
        <emissions CO_abs="13883.472422" CO2_abs="283266.640778" HC_abs="69.805665" PMx_abs="6.216575" NOx_abs="124.738619" fuel_abs="90353.635921" electricity_abs="0"/>
    </tripinfo>
    <tripinfo id="70" depart="7.00" departLane="28408345#1_0" departPos="5.10" departSpeed="0.00" departDelay="0.00" arrival="120.00" arrivalLane="-62213052#2_0" arrivalPos="9.01" arrivalSpeed="6.51" duration="113.00" routeLength="245.42" waitingTime="69.00" waitingCount="3" stopTime="0.00" timeLoss="83.04" rerouteNo="0" devices="tripinfo_70 emissions_70" vType="DEFAULT_VEHTYPE" speedFactor="1.02" vaporized="">
        <emissions CO_abs="14241.594192" CO2_abs="281696.787749" HC_abs="71.417692" PMx_abs="6.333716" NOx_abs="124.901799" fuel_abs="89853.013518" electricity_abs="0"/>
    </tripinfo>
    <tripinfo id="14" depart="6.00" departLane="30568275#2_0" departPos="5.10" departSpeed="0.00" departDelay="4.60" arrival="178.00" arrivalLane="234072360#1_0" arrivalPos="20.64" arrivalSpeed="5.51" duration="172.00" routeLength="185.48" waitingTime="119.00" waitingCount="4" stopTime="0.00" timeLoss="152.02" rerouteNo="0" devices="tripinfo_14 emissions_14" vType="DEFAULT_VEHTYPE" speedFactor="1.12" vaporized="">
        <emissions CO_abs="23929.599086" CO2_abs="432372.779304" HC_abs="119.082622" PMx_abs="10.234759" NOx_abs="194.929363" fuel_abs="137914.975874" electricity_abs="0"/>
    </tripinfo>
</tripinfos>
