<?xml version="1.0" encoding="UTF-8"?>

<!-- generated on 2024-11-28 22:59:27 by Eclipse SUMO GUI Version 1.21.0
<sumoConfiguration xmlns:xsi="http://www.w3.org/2001/XMLSchema-instance" xsi:noNamespaceSchemaLocation="http://sumo.dlr.de/xsd/sumoConfiguration.xsd">

    <input>
        <net-file value="kamppi.net.xml"/>
        <route-files value="kamppi.rou.xml"/>
        <additional-files value="additional.add.xml"/>
    </input>

    <output>
        <summary-output value="summary.xml"/>
        <tripinfo-output value="tripinfo.xml"/>
    </output>

    <time>
        <begin value="0"/>
        <end value="1800"/>
        <step-length value="1"/>
    </time>

    <processing>
        <max-num-vehicles value="500"/>
    </processing>

</sumoConfiguration>
-->

<tripinfos xmlns:xsi="http://www.w3.org/2001/XMLSchema-instance" xsi:noNamespaceSchemaLocation="http://sumo.dlr.de/xsd/tripinfo_file.xsd">
    <tripinfo id="3" depart="3.00" departLane="62212960_0" departPos="5.10" departSpeed="0.00" departDelay="0.00" arrival="32.00" arrivalLane="-234000028_0" arrivalPos="53.91" arrivalSpeed="8.06" duration="29.00" routeLength="198.09" waitingTime="0.00" waitingCount="0" stopTime="0.00" timeLoss="6.18" rerouteNo="0" devices="tripinfo_3" vType="DEFAULT_VEHTYPE" speedFactor="1.08" vaporized=""/>
    <tripinfo id="7" depart="7.00" departLane="30568275#2_0" departPos="5.10" departSpeed="0.00" departDelay="0.00" arrival="36.00" arrivalLane="234072360#1_0" arrivalPos="20.64" arrivalSpeed="7.28" duration="29.00" routeLength="185.48" waitingTime="0.00" waitingCount="0" stopTime="0.00" timeLoss="3.36" rerouteNo="0" devices="tripinfo_7" vType="DEFAULT_VEHTYPE" speedFactor="0.89" vaporized=""/>
    <tripinfo id="0" depart="0.00" departLane="30568275#2_0" departPos="5.10" departSpeed="0.00" departDelay="0.00" arrival="46.00" arrivalLane="-114554802#6_0" arrivalPos="9.37" arrivalSpeed="8.16" duration="46.00" routeLength="352.86" waitingTime="0.00" waitingCount="0" stopTime="0.00" timeLoss="5.48" rerouteNo="0" devices="tripinfo_0" vType="DEFAULT_VEHTYPE" speedFactor="1.06" vaporized=""/>
    <tripinfo id="12" depart="12.00" departLane="80727847#1_0" departPos="5.10" departSpeed="0.00" departDelay="0.00" arrival="51.00" arrivalLane="1122952687#1_0" arrivalPos="41.65" arrivalSpeed="8.26" duration="39.00" routeLength="274.27" waitingTime="0.00" waitingCount="0" stopTime="0.00" timeLoss="7.23" rerouteNo="0" devices="tripinfo_12" vType="DEFAULT_VEHTYPE" speedFactor="1.09" vaporized=""/>
    <tripinfo id="4" depart="4.00" departLane="128171761_0" departPos="5.10" departSpeed="0.00" departDelay="0.00" arrival="56.00" arrivalLane="-126902357#1_0" arrivalPos="4.82" arrivalSpeed="7.30" duration="52.00" routeLength="325.83" waitingTime="3.00" waitingCount="1" stopTime="0.00" timeLoss="12.58" rerouteNo="0" devices="tripinfo_4" vType="DEFAULT_VEHTYPE" speedFactor="1.03" vaporized=""/>
    <tripinfo id="18" depart="18.00" departLane="37293913#3_0" departPos="5.10" departSpeed="0.00" departDelay="0.00" arrival="64.00" arrivalLane="29400781#2_0" arrivalPos="14.15" arrivalSpeed="7.06" duration="46.00" routeLength="296.57" waitingTime="0.00" waitingCount="0" stopTime="0.00" timeLoss="6.58" rerouteNo="0" devices="tripinfo_18" vType="DEFAULT_VEHTYPE" speedFactor="0.93" vaporized=""/>
    <tripinfo id="19" depart="19.00" departLane="62200559#0_0" departPos="5.10" departSpeed="0.00" departDelay="0.00" arrival="76.00" arrivalLane="28408345#1_0" arrivalPos="103.58" arrivalSpeed="6.14" duration="57.00" routeLength="365.40" waitingTime="0.00" waitingCount="0" stopTime="0.00" timeLoss="6.12" rerouteNo="0" devices="tripinfo_19" vType="DEFAULT_VEHTYPE" speedFactor="0.88" vaporized=""/>
    <tripinfo id="13" depart="13.00" departLane="-234000028_0" departPos="5.10" departSpeed="0.00" departDelay="0.00" arrival="81.00" arrivalLane="-29186154#0_0" arrivalPos="37.04" arrivalSpeed="7.61" duration="68.00" routeLength="467.19" waitingTime="3.00" waitingCount="1" stopTime="0.00" timeLoss="12.36" rerouteNo="0" devices="tripinfo_13" vType="DEFAULT_VEHTYPE" speedFactor="1.03" vaporized=""/>
    <tripinfo id="27" depart="27.00" departLane="30568275#2_0" departPos="5.10" departSpeed="0.00" departDelay="0.00" arrival="87.00" arrivalLane="29186154#3_0" arrivalPos="11.35" arrivalSpeed="6.28" duration="60.00" routeLength="360.10" waitingTime="0.00" waitingCount="0" stopTime="0.00" timeLoss="7.35" rerouteNo="0" devices="tripinfo_27" vType="DEFAULT_VEHTYPE" speedFactor="0.83" vaporized=""/>
    <tripinfo id="32" depart="32.00" departLane="42919374#2_0" departPos="5.10" departSpeed="0.00" departDelay="0.00" arrival="87.00" arrivalLane="36726220#0_0" arrivalPos="55.59" arrivalSpeed="9.25" duration="55.00" routeLength="350.30" waitingTime="4.00" waitingCount="1" stopTime="0.00" timeLoss="17.42" rerouteNo="0" devices="tripinfo_32" vType="DEFAULT_VEHTYPE" speedFactor="1.13" vaporized=""/>
    <tripinfo id="42" depart="42.00" departLane="114555281#0_0" departPos="5.10" departSpeed="0.00" departDelay="0.00" arrival="92.00" arrivalLane="-572656872#1_0" arrivalPos="0.50" arrivalSpeed="9.62" duration="50.00" routeLength="410.51" waitingTime="0.00" waitingCount="0" stopTime="0.00" timeLoss="7.33" rerouteNo="0" devices="tripinfo_42" vType="DEFAULT_VEHTYPE" speedFactor="1.18" vaporized=""/>
    <tripinfo id="43" depart="43.00" departLane="948969467#1_0" departPos="5.10" departSpeed="0.00" departDelay="0.00" arrival="96.00" arrivalLane="234002366_0" arrivalPos="28.11" arrivalSpeed="9.03" duration="53.00" routeLength="381.74" waitingTime="0.00" waitingCount="0" stopTime="0.00" timeLoss="9.98" rerouteNo="0" devices="tripinfo_43" vType="DEFAULT_VEHTYPE" speedFactor="1.10" vaporized=""/>
    <tripinfo id="79" depart="79.00" departLane="-62200559#0_0" departPos="5.10" departSpeed="0.00" departDelay="0.00" arrival="99.00" arrivalLane="-62200559#0_0" arrivalPos="59.82" arrivalSpeed="3.52" duration="20.00" routeLength="54.72" waitingTime="2.00" waitingCount="2" stopTime="0.00" timeLoss="12.93" rerouteNo="0" devices="tripinfo_79" vType="DEFAULT_VEHTYPE" speedFactor="0.94" vaporized=""/>
    <tripinfo id="24" depart="24.00" departLane="30568275#2_0" departPos="5.10" departSpeed="0.00" departDelay="0.00" arrival="101.00" arrivalLane="114554786#2_1" arrivalPos="17.77" arrivalSpeed="7.35" duration="77.00" routeLength="484.38" waitingTime="5.00" waitingCount="1" stopTime="0.00" timeLoss="18.19" rerouteNo="0" devices="tripinfo_24" vType="DEFAULT_VEHTYPE" speedFactor="1.01" vaporized=""/>
    <tripinfo id="29" depart="31.00" departLane="-36726220#0_0" departPos="5.10" departSpeed="0.00" departDelay="2.00" arrival="102.00" arrivalLane="114554802#6_0" arrivalPos="9.37" arrivalSpeed="7.05" duration="71.00" routeLength="443.81" waitingTime="0.00" waitingCount="0" stopTime="0.00" timeLoss="10.96" rerouteNo="0" devices="tripinfo_29" vType="DEFAULT_VEHTYPE" speedFactor="0.92" vaporized=""/>
    <tripinfo id="60" depart="60.00" departLane="333061573#0_0" departPos="5.10" departSpeed="0.00" departDelay="0.00" arrival="103.00" arrivalLane="234072360#0_0" arrivalPos="16.13" arrivalSpeed="8.17" duration="43.00" routeLength="201.39" waitingTime="7.00" waitingCount="2" stopTime="0.00" timeLoss="19.17" rerouteNo="0" devices="tripinfo_60" vType="DEFAULT_VEHTYPE" speedFactor="1.10" vaporized=""/>
    <tripinfo id="14" depart="14.00" departLane="42919375_0" departPos="5.10" departSpeed="0.00" departDelay="0.00" arrival="104.00" arrivalLane="29186154#2_0" arrivalPos="8.96" arrivalSpeed="7.94" duration="90.00" routeLength="610.88" waitingTime="5.00" waitingCount="1" stopTime="0.00" timeLoss="18.78" rerouteNo="0" devices="tripinfo_14" vType="DEFAULT_VEHTYPE" speedFactor="1.05" vaporized=""/>
    <tripinfo id="36" depart="36.00" departLane="62212737_0" departPos="5.10" departSpeed="0.00" departDelay="0.00" arrival="104.00" arrivalLane="-80727847#1_0" arrivalPos="45.97" arrivalSpeed="7.34" duration="68.00" routeLength="474.62" waitingTime="0.00" waitingCount="0" stopTime="0.00" timeLoss="9.19" rerouteNo="0" devices="tripinfo_36" vType="DEFAULT_VEHTYPE" speedFactor="1.01" vaporized=""/>
    <tripinfo id="38" depart="38.00" departLane="76333545_0" departPos="5.10" departSpeed="0.00" departDelay="0.00" arrival="105.00" arrivalLane="21081120#4_0" arrivalPos="106.95" arrivalSpeed="8.52" duration="67.00" routeLength="298.23" waitingTime="25.00" waitingCount="1" stopTime="0.00" timeLoss="35.23" rerouteNo="0" devices="tripinfo_38" vType="DEFAULT_VEHTYPE" speedFactor="1.17" vaporized=""/>
    <tripinfo id="17" depart="17.00" departLane="114554802#5_0" departPos="5.10" departSpeed="0.00" departDelay="0.00" arrival="107.00" arrivalLane="234072362_0" arrivalPos="12.22" arrivalSpeed="8.11" duration="90.00" routeLength="648.08" waitingTime="0.00" waitingCount="0" stopTime="0.00" timeLoss="10.17" rerouteNo="0" devices="tripinfo_17" vType="DEFAULT_VEHTYPE" speedFactor="0.99" vaporized=""/>
    <tripinfo id="1" depart="1.00" departLane="-76333547_0" departPos="5.10" departSpeed="0.00" departDelay="0.00" arrival="109.00" arrivalLane="-62200559#0_0" arrivalPos="59.82" arrivalSpeed="6.74" duration="108.00" routeLength="473.86" waitingTime="27.00" waitingCount="1" stopTime="0.00" timeLoss="47.05" rerouteNo="0" devices="tripinfo_1" vType="DEFAULT_VEHTYPE" speedFactor="0.94" vaporized=""/>
    <tripinfo id="67" depart="67.00" departLane="-234000028_0" departPos="5.10" departSpeed="0.00" departDelay="0.00" arrival="114.00" arrivalLane="234001132_1" arrivalPos="49.52" arrivalSpeed="7.53" duration="47.00" routeLength="199.26" waitingTime="10.00" waitingCount="2" stopTime="0.00" timeLoss="24.30" rerouteNo="0" devices="tripinfo_67" vType="DEFAULT_VEHTYPE" speedFactor="1.08" vaporized=""/>
    <tripinfo id="40" depart="40.00" departLane="28408345#1_0" departPos="5.10" departSpeed="0.00" departDelay="0.00" arrival="115.00" arrivalLane="-62213052#2_0" arrivalPos="9.01" arrivalSpeed="8.30" duration="75.00" routeLength="245.42" waitingTime="30.00" waitingCount="2" stopTime="0.00" timeLoss="44.55" rerouteNo="0" devices="tripinfo_40" vType="DEFAULT_VEHTYPE" speedFactor="1.02" vaporized=""/>
    <tripinfo id="6" depart="6.00" departLane="-114554802#6_0" departPos="5.10" departSpeed="0.00" departDelay="0.00" arrival="118.00" arrivalLane="-42919371_0" arrivalPos="19.45" arrivalSpeed="8.55" duration="112.00" routeLength="654.13" waitingTime="19.00" waitingCount="2" stopTime="0.00" timeLoss="34.56" rerouteNo="0" devices="tripinfo_6" vType="DEFAULT_VEHTYPE" speedFactor="1.05" vaporized=""/>
    <tripinfo id="16" depart="16.00" departLane="234002842#3_0" departPos="5.10" departSpeed="0.00" departDelay="0.00" arrival="119.00" arrivalLane="81523597#0_0" arrivalPos="36.99" arrivalSpeed="9.28" duration="103.00" routeLength="704.21" waitingTime="2.00" waitingCount="1" stopTime="0.00" timeLoss="25.61" rerouteNo="0" devices="tripinfo_16" vType="DEFAULT_VEHTYPE" speedFactor="1.12" vaporized=""/>
    <tripinfo id="41" depart="43.00" departLane="28408345#1_0" departPos="5.10" departSpeed="0.00" departDelay="2.00" arrival="119.00" arrivalLane="62212960_0" arrivalPos="27.05" arrivalSpeed="7.35" duration="76.00" routeLength="265.52" waitingTime="29.00" waitingCount="2" stopTime="0.00" timeLoss="42.57" rerouteNo="0" devices="tripinfo_41" vType="DEFAULT_VEHTYPE" speedFactor="0.97" vaporized=""/>
    <tripinfo id="35" depart="35.00" departLane="-42919374#2_0" departPos="5.10" departSpeed="0.00" departDelay="0.00" arrival="121.00" arrivalLane="76334539#1_0" arrivalPos="10.20" arrivalSpeed="8.76" duration="86.00" routeLength="359.70" waitingTime="25.00" waitingCount="3" stopTime="0.00" timeLoss="47.21" rerouteNo="0" devices="tripinfo_35" vType="DEFAULT_VEHTYPE" speedFactor="1.15" vaporized=""/>
    <tripinfo id="48" depart="51.00" departLane="948969467#1_0" departPos="5.10" departSpeed="0.00" departDelay="3.00" arrival="130.00" arrivalLane="234002842#3_0" arrivalPos="26.27" arrivalSpeed="8.91" duration="79.00" routeLength="501.58" waitingTime="3.00" waitingCount="2" stopTime="0.00" timeLoss="23.23" rerouteNo="0" devices="tripinfo_48" vType="DEFAULT_VEHTYPE" speedFactor="1.09" vaporized=""/>
    <tripinfo id="127" depart="127.00" departLane="948969467#1_0" departPos="5.10" departSpeed="0.00" departDelay="0.00" arrival="131.00" arrivalLane="948969467#1_0" arrivalPos="20.76" arrivalSpeed="8.36" duration="4.00" routeLength="15.66" waitingTime="0.00" waitingCount="0" stopTime="0.00" timeLoss="1.54" rerouteNo="0" devices="tripinfo_127" vType="DEFAULT_VEHTYPE" speedFactor="1.00" vaporized=""/>
    <tripinfo id="76" depart="76.00" departLane="21081120#4_0" departPos="5.10" departSpeed="0.00" departDelay="0.00" arrival="132.00" arrivalLane="234002842#0_1" arrivalPos="52.49" arrivalSpeed="8.30" duration="56.00" routeLength="341.94" waitingTime="2.00" waitingCount="1" stopTime="0.00" timeLoss="14.92" rerouteNo="0" devices="tripinfo_76" vType="DEFAULT_VEHTYPE" speedFactor="1.02" vaporized=""/>
    <tripinfo id="130" depart="130.00" departLane="62212737_0" departPos="5.10" departSpeed="0.00" departDelay="0.00" arrival="134.00" arrivalLane="62212737_0" arrivalPos="20.25" arrivalSpeed="7.82" duration="4.00" routeLength="15.15" waitingTime="0.00" waitingCount="0" stopTime="0.00" timeLoss="1.38" rerouteNo="0" devices="tripinfo_130" vType="DEFAULT_VEHTYPE" speedFactor="0.94" vaporized=""/>
    <tripinfo id="39" depart="39.00" departLane="-62213052#2_0" departPos="5.10" departSpeed="0.00" departDelay="0.00" arrival="136.00" arrivalLane="-62212960_0" arrivalPos="27.05" arrivalSpeed="7.65" duration="97.00" routeLength="421.47" waitingTime="30.00" waitingCount="2" stopTime="0.00" timeLoss="45.13" rerouteNo="0" devices="tripinfo_39" vType="DEFAULT_VEHTYPE" speedFactor="0.99" vaporized=""/>
    <tripinfo id="34" depart="34.00" departLane="-80727847#1_0" departPos="5.10" departSpeed="0.00" departDelay="0.00" arrival="137.00" arrivalLane="-76333545_0" arrivalPos="11.53" arrivalSpeed="8.85" duration="103.00" routeLength="540.80" waitingTime="23.00" waitingCount="2" stopTime="0.00" timeLoss="46.44" rerouteNo="0" devices="tripinfo_34" vType="DEFAULT_VEHTYPE" speedFactor="1.18" vaporized=""/>
    <tripinfo id="97" depart="97.00" departLane="21081120#4_0" departPos="5.10" departSpeed="0.00" departDelay="0.00" arrival="141.00" arrivalLane="62200559#0_0" arrivalPos="59.82" arrivalSpeed="7.50" duration="44.00" routeLength="199.63" waitingTime="6.00" waitingCount="1" stopTime="0.00" timeLoss="20.48" rerouteNo="0" devices="tripinfo_97" vType="DEFAULT_VEHTYPE" speedFactor="1.02" vaporized=""/>
    <tripinfo id="57" depart="57.00" departLane="76333545_0" departPos="5.10" departSpeed="0.00" departDelay="0.00" arrival="144.00" arrivalLane="62200559#0_0" arrivalPos="59.82" arrivalSpeed="5.83" duration="87.00" routeLength="396.01" waitingTime="9.00" waitingCount="2" stopTime="0.00" timeLoss="30.09" rerouteNo="0" devices="tripinfo_57" vType="DEFAULT_VEHTYPE" speedFactor="0.85" vaporized=""/>
    <tripinfo id="61" depart="61.00" departLane="36726220#0_0" departPos="5.10" departSpeed="0.00" departDelay="0.00" arrival="145.00" arrivalLane="234002842#3_0" arrivalPos="26.27" arrivalSpeed="7.66" duration="84.00" routeLength="492.83" waitingTime="0.00" waitingCount="0" stopTime="0.00" timeLoss="23.33" rerouteNo="0" devices="tripinfo_61" vType="DEFAULT_VEHTYPE" speedFactor="1.00" vaporized=""/>
    <tripinfo id="51" depart="51.00" departLane="324204711#0_0" departPos="3.55" departSpeed="0.00" departDelay="0.00" arrival="147.00" arrivalLane="234072360#0_0" arrivalPos="16.13" arrivalSpeed="7.91" duration="96.00" routeLength="452.40" waitingTime="28.00" waitingCount="1" stopTime="0.00" timeLoss="42.91" rerouteNo="0" devices="tripinfo_51" vType="DEFAULT_VEHTYPE" speedFactor="1.04" vaporized=""/>
    <tripinfo id="5" depart="5.00" departLane="-42919375_0" departPos="5.10" departSpeed="0.00" departDelay="0.00" arrival="154.00" arrivalLane="234002366_1" arrivalPos="28.11" arrivalSpeed="6.13" duration="149.00" routeLength="496.10" waitingTime="50.00" waitingCount="3" stopTime="0.00" timeLoss="75.68" rerouteNo="0" devices="tripinfo_5" vType="DEFAULT_VEHTYPE" speedFactor="0.83" vaporized=""/>
    <tripinfo id="58" depart="58.00" departLane="-76334539#1_0" departPos="5.10" departSpeed="0.00" departDelay="0.00" arrival="154.00" arrivalLane="30568275#2_0" arrivalPos="103.24" arrivalSpeed="9.51" duration="96.00" routeLength="356.76" waitingTime="45.00" waitingCount="2" stopTime="0.00" timeLoss="58.29" rerouteNo="0" devices="tripinfo_58" vType="DEFAULT_VEHTYPE" speedFactor="1.17" vaporized=""/>
    <tripinfo id="71" depart="71.00" departLane="-62213052#2_0" departPos="5.10" departSpeed="0.00" departDelay="0.00" arrival="154.00" arrivalLane="62200559#0_0" arrivalPos="59.82" arrivalSpeed="7.50" duration="83.00" routeLength="394.46" waitingTime="14.00" waitingCount="2" stopTime="0.00" timeLoss="30.84" rerouteNo="0" devices="tripinfo_71" vType="DEFAULT_VEHTYPE" speedFactor="0.94" vaporized=""/>
    <tripinfo id="54" depart="54.00" departLane="21081120#4_0" departPos="5.10" departSpeed="0.00" departDelay="0.00" arrival="155.00" arrivalLane="80727847#1_0" arrivalPos="45.97" arrivalSpeed="6.69" duration="101.00" routeLength="349.15" waitingTime="36.00" waitingCount="3" stopTime="0.00" timeLoss="53.61" rerouteNo="0" devices="tripinfo_54" vType="DEFAULT_VEHTYPE" speedFactor="0.90" vaporized=""/>
    <tripinfo id="8" depart="8.00" departLane="-42919376#0_0" departPos="5.10" departSpeed="0.00" departDelay="0.00" arrival="156.00" arrivalLane="28408345#1_0" arrivalPos="103.58" arrivalSpeed="7.26" duration="148.00" routeLength="717.40" waitingTime="33.00" waitingCount="3" stopTime="0.00" timeLoss="54.35" rerouteNo="0" devices="tripinfo_8" vType="DEFAULT_VEHTYPE" speedFactor="0.94" vaporized=""/>
    <tripinfo id="118" depart="123.00" departLane="62212960_0" departPos="5.10" departSpeed="0.00" departDelay="5.00" arrival="157.00" arrivalLane="-62212960_0" arrivalPos="27.05" arrivalSpeed="8.74" duration="34.00" routeLength="225.24" waitingTime="0.00" waitingCount="0" stopTime="0.00" timeLoss="8.21" rerouteNo="0" devices="tripinfo_118" vType="DEFAULT_VEHTYPE" speedFactor="1.06" vaporized=""/>
    <tripinfo id="28" depart="28.00" departLane="-36726220#0_0" departPos="5.10" departSpeed="0.00" departDelay="0.00" arrival="160.00" arrivalLane="333061564_0" arrivalPos="27.90" arrivalSpeed="6.53" duration="132.00" routeLength="707.57" waitingTime="15.00" waitingCount="1" stopTime="0.00" timeLoss="32.82" rerouteNo="0" devices="tripinfo_28" vType="DEFAULT_VEHTYPE" speedFactor="0.87" vaporized=""/>
    <tripinfo id="84" depart="87.00" departLane="-42919375_0" departPos="5.10" departSpeed="0.00" departDelay="3.00" arrival="160.00" arrivalLane="-333061565_0" arrivalPos="14.65" arrivalSpeed="7.09" duration="73.00" routeLength="230.04" waitingTime="34.00" waitingCount="1" stopTime="0.00" timeLoss="44.02" rerouteNo="0" devices="tripinfo_84" vType="DEFAULT_VEHTYPE" speedFactor="0.98" vaporized=""/>
    <tripinfo id="78" depart="78.00" departLane="-948969467#1_0" departPos="5.10" departSpeed="0.00" departDelay="0.00" arrival="162.00" arrivalLane="28408345#1_0" arrivalPos="103.58" arrivalSpeed="7.66" duration="84.00" routeLength="458.75" waitingTime="8.00" waitingCount="2" stopTime="0.00" timeLoss="25.44" rerouteNo="0" devices="tripinfo_78" vType="DEFAULT_VEHTYPE" speedFactor="0.97" vaporized=""/>
    <tripinfo id="152" depart="152.00" departLane="-333061568_0" departPos="5.10" departSpeed="0.00" departDelay="0.00" arrival="164.00" arrivalLane="-333061564_0" arrivalPos="27.90" arrivalSpeed="8.60" duration="12.00" routeLength="90.16" waitingTime="0.00" waitingCount="0" stopTime="0.00" timeLoss="2.69" rerouteNo="0" devices="tripinfo_152" vType="DEFAULT_VEHTYPE" speedFactor="1.16" vaporized=""/>
    <tripinfo id="83" depart="92.00" departLane="-62200559#0_0" departPos="5.10" departSpeed="0.00" departDelay="9.00" arrival="166.00" arrivalLane="324204704_0" arrivalPos="38.17" arrivalSpeed="8.01" duration="74.00" routeLength="335.03" waitingTime="6.00" waitingCount="1" stopTime="0.00" timeLoss="33.91" rerouteNo="0" devices="tripinfo_83" vType="DEFAULT_VEHTYPE" speedFactor="1.03" vaporized=""/>
    <tripinfo id="70" depart="70.00" departLane="234000028_0" departPos="5.10" departSpeed="0.00" departDelay="0.00" arrival="167.00" arrivalLane="234072362_0" arrivalPos="12.22" arrivalSpeed="7.28" duration="97.00" routeLength="610.57" waitingTime="3.00" waitingCount="1" stopTime="0.00" timeLoss="20.60" rerouteNo="0" devices="tripinfo_70" vType="DEFAULT_VEHTYPE" speedFactor="0.99" vaporized=""/>
    <tripinfo id="2" depart="2.00" departLane="333061565_0" departPos="5.10" departSpeed="0.00" departDelay="0.00" arrival="173.00" arrivalLane="324204704_0" arrivalPos="38.17" arrivalSpeed="7.24" duration="171.00" routeLength="723.45" waitingTime="52.00" waitingCount="4" stopTime="0.00" timeLoss="84.18" rerouteNo="0" devices="tripinfo_2" vType="DEFAULT_VEHTYPE" speedFactor="1.01" vaporized=""/>
    <tripinfo id="104" depart="104.00" departLane="114554802#5_0" departPos="5.10" departSpeed="0.00" departDelay="0.00" arrival="174.00" arrivalLane="81527786_1" arrivalPos="8.30" arrivalSpeed="8.24" duration="70.00" routeLength="515.49" waitingTime="0.00" waitingCount="0" stopTime="0.00" timeLoss="10.27" rerouteNo="0" devices="tripinfo_104" vType="DEFAULT_VEHTYPE" speedFactor="1.06" vaporized=""/>
    <tripinfo id="73" depart="74.00" departLane="234072360#0_0" departPos="5.10" departSpeed="0.00" departDelay="1.00" arrival="177.00" arrivalLane="333061564_0" arrivalPos="27.90" arrivalSpeed="6.32" duration="103.00" routeLength="585.46" waitingTime="5.00" waitingCount="1" stopTime="0.00" timeLoss="23.93" rerouteNo="0" devices="tripinfo_73" vType="DEFAULT_VEHTYPE" speedFactor="0.91" vaporized=""/>
    <tripinfo id="167" depart="168.00" departLane="62200559#0_0" departPos="5.10" departSpeed="0.00" departDelay="1.00" arrival="177.00" arrivalLane="62200559#0_0" arrivalPos="59.82" arrivalSpeed="7.83" duration="9.00" routeLength="54.72" waitingTime="0.00" waitingCount="0" stopTime="0.00" timeLoss="2.28" rerouteNo="0" devices="tripinfo_167" vType="DEFAULT_VEHTYPE" speedFactor="1.00" vaporized=""/>
    <tripinfo id="86" depart="86.00" departLane="234000028_0" departPos="5.10" departSpeed="0.00" departDelay="0.00" arrival="179.00" arrivalLane="36726221#1_0" arrivalPos="23.74" arrivalSpeed="8.07" duration="93.00" routeLength="586.82" waitingTime="7.00" waitingCount="1" stopTime="0.00" timeLoss="26.88" rerouteNo="0" devices="tripinfo_86" vType="DEFAULT_VEHTYPE" speedFactor="1.09" vaporized=""/>
    <tripinfo id="23" depart="23.00" departLane="-29186154#0_0" departPos="5.10" departSpeed="0.00" departDelay="0.00" arrival="186.00" arrivalLane="-76334539#0_0" arrivalPos="58.28" arrivalSpeed="5.79" duration="163.00" routeLength="764.12" waitingTime="42.00" waitingCount="3" stopTime="0.00" timeLoss="71.11" rerouteNo="0" devices="tripinfo_23" vType="DEFAULT_VEHTYPE" speedFactor="1.02" vaporized=""/>
    <tripinfo id="21" depart="21.00" departLane="-62200559#0_0" departPos="5.10" departSpeed="0.00" departDelay="0.00" arrival="191.00" arrivalLane="-76334539#0_0" arrivalPos="58.28" arrivalSpeed="7.10" duration="170.00" routeLength="521.13" waitingTime="79.00" waitingCount="3" stopTime="0.00" timeLoss="100.87" rerouteNo="0" devices="tripinfo_21" vType="DEFAULT_VEHTYPE" speedFactor="0.94" vaporized=""/>
    <tripinfo id="55" depart="55.00" departLane="62212737_0" departPos="5.10" departSpeed="0.00" departDelay="0.00" arrival="192.00" arrivalLane="-62213052#2_0" arrivalPos="9.01" arrivalSpeed="6.15" duration="137.00" routeLength="525.55" waitingTime="43.00" waitingCount="2" stopTime="0.00" timeLoss="62.27" rerouteNo="0" devices="tripinfo_55" vType="DEFAULT_VEHTYPE" speedFactor="0.88" vaporized=""/>
    <tripinfo id="147" depart="147.00" departLane="333061566_0" departPos="5.10" departSpeed="0.00" departDelay="0.00" arrival="192.00" arrivalLane="234072362_0" arrivalPos="12.22" arrivalSpeed="8.96" duration="45.00" routeLength="320.38" waitingTime="0.00" waitingCount="0" stopTime="0.00" timeLoss="9.71" rerouteNo="0" devices="tripinfo_147" vType="DEFAULT_VEHTYPE" speedFactor="1.12" vaporized=""/>
    <tripinfo id="126" depart="126.00" departLane="-217644146#0_0" departPos="5.10" departSpeed="0.00" departDelay="0.00" arrival="197.00" arrivalLane="21081120#4_0" arrivalPos="106.95" arrivalSpeed="9.56" duration="71.00" routeLength="254.07" waitingTime="35.00" waitingCount="1" stopTime="0.00" timeLoss="44.37" rerouteNo="0" devices="tripinfo_126" vType="DEFAULT_VEHTYPE" speedFactor="1.18" vaporized=""/>
    <tripinfo id="128" depart="129.00" departLane="-217644146#0_0" departPos="5.10" departSpeed="0.00" departDelay="1.00" arrival="199.00" arrivalLane="-42919375_0" arrivalPos="21.52" arrivalSpeed="7.91" duration="70.00" routeLength="247.64" waitingTime="32.00" waitingCount="1" stopTime="0.00" timeLoss="39.79" rerouteNo="0" devices="tripinfo_128" vType="DEFAULT_VEHTYPE" speedFactor="0.99" vaporized=""/>
    <tripinfo id="81" depart="84.00" departLane="-62200559#0_0" departPos="5.10" departSpeed="0.00" departDelay="3.00" arrival="200.00" arrivalLane="62213052#1_0" arrivalPos="21.06" arrivalSpeed="6.90" duration="116.00" routeLength="382.37" waitingTime="31.00" waitingCount="4" stopTime="0.00" timeLoss="66.19" rerouteNo="0" devices="tripinfo_81" vType="DEFAULT_VEHTYPE" speedFactor="0.96" vaporized=""/>
    <tripinfo id="85" depart="85.00" departLane="76334539#0_0" departPos="5.10" departSpeed="0.00" departDelay="0.00" arrival="200.00" arrivalLane="28408345#1_0" arrivalPos="103.58" arrivalSpeed="7.48" duration="115.00" routeLength="823.17" waitingTime="0.00" waitingCount="0" stopTime="0.00" timeLoss="13.80" rerouteNo="0" devices="tripinfo_85" vType="DEFAULT_VEHTYPE" speedFactor="1.01" vaporized=""/>
    <tripinfo id="90" depart="90.00" departLane="333061564_0" departPos="5.10" departSpeed="0.00" departDelay="0.00" arrival="203.00" arrivalLane="324204704_0" arrivalPos="38.17" arrivalSpeed="7.68" duration="113.00" routeLength="681.28" waitingTime="4.00" waitingCount="1" stopTime="0.00" timeLoss="31.85" rerouteNo="0" devices="tripinfo_90" vType="DEFAULT_VEHTYPE" speedFactor="1.02" vaporized=""/>
    <tripinfo id="89" depart="123.00" departLane="128171761_0" departPos="5.10" departSpeed="0.00" departDelay="34.00" arrival="204.00" arrivalLane="234000028_0" arrivalPos="53.91" arrivalSpeed="7.16" duration="81.00" routeLength="370.15" waitingTime="18.00" waitingCount="1" stopTime="0.00" timeLoss="35.51" rerouteNo="0" devices="tripinfo_89" vType="DEFAULT_VEHTYPE" speedFactor="1.00" vaporized=""/>
    <tripinfo id="93" depart="94.00" departLane="62200559#0_0" departPos="5.10" departSpeed="0.00" departDelay="1.00" arrival="207.00" arrivalLane="-62213050_0" arrivalPos="5.51" arrivalSpeed="5.62" duration="113.00" routeLength="345.39" waitingTime="42.00" waitingCount="3" stopTime="0.00" timeLoss="69.45" rerouteNo="0" devices="tripinfo_93" vType="DEFAULT_VEHTYPE" speedFactor="0.98" vaporized=""/>
    <tripinfo id="142" depart="142.00" departLane="234001132_0" departPos="5.10" departSpeed="0.00" departDelay="0.00" arrival="207.00" arrivalLane="62213052#1_0" arrivalPos="21.06" arrivalSpeed="8.71" duration="65.00" routeLength="407.99" waitingTime="2.00" waitingCount="1" stopTime="0.00" timeLoss="18.23" rerouteNo="0" devices="tripinfo_142" vType="DEFAULT_VEHTYPE" speedFactor="1.07" vaporized=""/>
    <tripinfo id="115" depart="115.00" departLane="-234000028_0" departPos="5.10" departSpeed="0.00" departDelay="0.00" arrival="211.00" arrivalLane="-37293913#2_0" arrivalPos="15.41" arrivalSpeed="8.89" duration="96.00" routeLength="568.51" waitingTime="14.00" waitingCount="2" stopTime="0.00" timeLoss="31.44" rerouteNo="0" devices="tripinfo_115" vType="DEFAULT_VEHTYPE" speedFactor="1.07" vaporized=""/>
    <tripinfo id="171" depart="171.00" departLane="-114554802#5_0" departPos="5.10" departSpeed="0.00" departDelay="0.00" arrival="211.00" arrivalLane="-37293913#3_0" arrivalPos="16.48" arrivalSpeed="7.90" duration="40.00" routeLength="229.33" waitingTime="2.00" waitingCount="2" stopTime="0.00" timeLoss="13.47" rerouteNo="0" devices="tripinfo_171" vType="DEFAULT_VEHTYPE" speedFactor="1.06" vaporized=""/>
    <tripinfo id="174" depart="174.00" departLane="30568275#2_0" departPos="5.10" departSpeed="0.00" departDelay="0.00" arrival="221.00" arrivalLane="114555281#0_1" arrivalPos="18.35" arrivalSpeed="8.69" duration="47.00" routeLength="357.50" waitingTime="0.00" waitingCount="0" stopTime="0.00" timeLoss="6.14" rerouteNo="0" devices="tripinfo_174" vType="DEFAULT_VEHTYPE" speedFactor="1.08" vaporized=""/>
    <tripinfo id="106" depart="111.00" departLane="21081120#4_0" departPos="5.10" departSpeed="0.00" departDelay="5.00" arrival="231.00" arrivalLane="132422343_0" arrivalPos="8.95" arrivalSpeed="7.21" duration="120.00" routeLength="612.27" waitingTime="14.00" waitingCount="3" stopTime="0.00" timeLoss="37.52" rerouteNo="0" devices="tripinfo_106" vType="DEFAULT_VEHTYPE" speedFactor="0.91" vaporized=""/>
    <tripinfo id="223" depart="225.00" departLane="332402669#3_0" departPos="5.10" departSpeed="0.00" departDelay="2.00" arrival="231.00" arrivalLane="234002366_0" arrivalPos="28.11" arrivalSpeed="6.66" duration="6.00" routeLength="30.67" waitingTime="0.00" waitingCount="0" stopTime="0.00" timeLoss="1.29" rerouteNo="0" devices="tripinfo_223" vType="DEFAULT_VEHTYPE" speedFactor="0.87" vaporized=""/>
    <tripinfo id="82" depart="83.00" departLane="62200559#0_0" departPos="5.10" departSpeed="0.00" departDelay="1.00" arrival="233.00" arrivalLane="-217644146#0_0" arrivalPos="17.77" arrivalSpeed="7.13" duration="150.00" routeLength="501.55" waitingTime="51.00" waitingCount="3" stopTime="0.00" timeLoss="87.36" rerouteNo="0" devices="tripinfo_82" vType="DEFAULT_VEHTYPE" speedFactor="0.98" vaporized=""/>